
     Program PWSCF v.6.4.1 starts on  9Dec2020 at 23:57:17 

     This program is part of the open-source Quantum ESPRESSO suite
     for quantum simulation of materials; please cite
         "P. Giannozzi et al., J. Phys.:Condens. Matter 21 395502 (2009);
         "P. Giannozzi et al., J. Phys.:Condens. Matter 29 465901 (2017);
          URL http://www.quantum-espresso.org", 
     in publications or presentations arising from this work. More details at
     http://www.quantum-espresso.org/quote

     Parallel version (MPI), running on     1 processors

     MPI processes distributed on     1 nodes
     Waiting for input...
     Reading input from standard input

     Current dimensions of program PWSCF are:
     Max number of different atomic species (ntypx) = 10
     Max number of k-points (npk) =  40000
     Max angular momentum in pseudopotentials (lmaxx) =  3
               file O.pbe-rrkjus.UPF: wavefunction(s)  2S renormalized

     Subspace diagonalization in iterative solution of the eigenvalue problem:
     a serial algorithm will be used


     G-vector sticks info
     --------------------
     sticks:   dense  smooth     PW     G-vecs:    dense   smooth      PW
     Sum        1273     649    187               236799    83705   13013


     Title: 
     ZnO slab                                                                   


     bravais-lattice index     =            4
     lattice parameter (alat)  =       6.2020  a.u.
     unit-cell volume          =    1332.5565 (a.u.)^3
     number of atoms/cell      =            8
     number of atomic types    =            2
     number of electrons       =        72.00
     number of Kohn-Sham states=           40
     kinetic-energy cutoff     =      60.0000  Ry
     charge density cutoff     =     480.0000  Ry
     convergence threshold     =      1.0E-09
     mixing beta               =       0.7500
     number of iterations used =            8  plain     mixing
     Exchange-correlation      =  SLA  PW   PBE  PBE ( 1  4  3  4 0 0)
     nstep                     =           50


     celldm(1)=   6.202000  celldm(2)=   0.000000  celldm(3)=   6.450000
     celldm(4)=   0.000000  celldm(5)=   0.000000  celldm(6)=   0.000000

     crystal axes: (cart. coord. in units of alat)
               a(1) = (   1.000000   0.000000   0.000000 )  
               a(2) = (  -0.500000   0.866025   0.000000 )  
               a(3) = (   0.000000   0.000000   6.450000 )  

     reciprocal axes: (cart. coord. in units 2 pi/alat)
               b(1) = (  1.000000  0.577350 -0.000000 )  
               b(2) = (  0.000000  1.154701  0.000000 )  
               b(3) = (  0.000000 -0.000000  0.155039 )  


     PseudoPot. # 1 for Zn read from file:
     ./Zn.pbe-van.UPF
     MD5 check sum: 8a117cd81793830d6ad9bd6443d05479
     Pseudo is Ultrasoft, Zval = 12.0
     Generated by new atomic code, or converted to UPF format
     Using radial grid of  869 points,  6 beta functions with: 
                l(1) =   0
                l(2) =   0
                l(3) =   1
                l(4) =   1
                l(5) =   2
                l(6) =   2
     Q(r) pseudized with  8 coefficients,  rinner =    0.800   0.800   0.800
                                                       0.800   0.800

     PseudoPot. # 2 for O  read from file:
     ./O.pbe-rrkjus.UPF
     MD5 check sum: 390ba29e75625707450f3bd3f0eb6be9
     Pseudo is Ultrasoft, Zval =  6.0
     Generated by new atomic code, or converted to UPF format
     Using radial grid of 1269 points,  4 beta functions with: 
                l(1) =   0
                l(2) =   0
                l(3) =   1
                l(4) =   1
     Q(r) pseudized with 0 coefficients 


     atomic species   valence    mass     pseudopotential
        Zn            12.00    30.00000     Zn( 1.00)
        O              6.00    16.00000     O ( 1.00)

      6 Sym. Ops. (no inversion) found



   Cartesian axes

     site n.     atom                  positions (alat units)
         1           O   tau(   1) = (   0.5000000  -0.2886751   0.0000000  )
         2           Zn  tau(   2) = (   0.5000000  -0.2886751   0.6127500  )
         3           O   tau(   3) = (   0.5000000   0.2886751   0.8062500  )
         4           Zn  tau(   4) = (   0.5000000   0.2886751   1.4190000  )
         5           O   tau(   5) = (   0.5000000  -0.2886751   1.6125000  )
         6           Zn  tau(   6) = (   0.5000000  -0.2886751   2.2252500  )
         7           O   tau(   7) = (   0.5000000   0.2886751   2.4187500  )
         8           Zn  tau(   8) = (   0.5000000   0.2886751   3.0315000  )

     number of k points=     9  gaussian smearing, width (Ry)=  0.0500
                       cart. coord. in units 2pi/alat
        k(    1) = (   0.0000000   0.0000000   0.0000000), wk =   0.0416667
        k(    2) = (   0.0000000   0.0000000   0.0516796), wk =   0.0833333
        k(    3) = (   0.0000000   0.2886751   0.0000000), wk =   0.2500000
        k(    4) = (   0.0000000   0.2886751   0.0516796), wk =   0.2500000
        k(    5) = (   0.0000000  -0.5773503   0.0000000), wk =   0.1250000
        k(    6) = (   0.0000000  -0.5773503   0.0516796), wk =   0.2500000
        k(    7) = (   0.2500000   0.4330127   0.0000000), wk =   0.2500000
        k(    8) = (   0.2500000   0.4330127   0.0516796), wk =   0.5000000
        k(    9) = (   0.0000000  -0.2886751   0.0516796), wk =   0.2500000

     Dense  grid:   236799 G-vectors     FFT dimensions: (  45,  45, 288)

     Smooth grid:    83705 G-vectors     FFT dimensions: (  32,  32, 200)

     Estimated max dynamical RAM per process >     981.86 MB

     Initial potential from superposition of free atoms

     starting charge   71.99939, renormalised to   72.00000

     negative rho (up, down):  6.415E-04 0.000E+00
     Starting wfcs are   40 randomized atomic wfcs

     total cpu time spent up to now is        3.9 secs

     Self-consistent Calculation

     iteration #  1     ecut=    60.00 Ry     beta= 0.75
     Davidson diagonalization with overlap
     ethr =  1.00E-02,  avg # of iterations =  4.1

     negative rho (up, down):  8.575E-04 0.000E+00

     total cpu time spent up to now is       11.6 secs

     total energy              =    -626.50808900 Ry
     Harris-Foulkes estimate   =    -634.43932049 Ry
     estimated scf accuracy    <       8.84735582 Ry

     iteration #  2     ecut=    60.00 Ry     beta= 0.75
     Davidson diagonalization with overlap
     ethr =  1.00E-02,  avg # of iterations = 10.1

     negative rho (up, down):  9.935E-04 0.000E+00

     total cpu time spent up to now is       28.9 secs

     total energy              =    -562.90951275 Ry
     Harris-Foulkes estimate   =    -754.18156640 Ry
     estimated scf accuracy    <    3564.23066426 Ry

     iteration #  3     ecut=    60.00 Ry     beta= 0.75
     Davidson diagonalization with overlap
     ethr =  1.00E-02,  avg # of iterations =  8.1

     negative rho (up, down):  8.538E-04 0.000E+00

     total cpu time spent up to now is       45.4 secs

     total energy              =    -626.29257936 Ry
     Harris-Foulkes estimate   =    -649.10861260 Ry
     estimated scf accuracy    <     139.56127863 Ry

     iteration #  4     ecut=    60.00 Ry     beta= 0.75
     Davidson diagonalization with overlap
     ethr =  1.00E-02,  avg # of iterations =  6.6

     negative rho (up, down):  9.065E-04 0.000E+00

     total cpu time spent up to now is       57.7 secs

     total energy              =    -630.79319155 Ry
     Harris-Foulkes estimate   =    -635.81094708 Ry
     estimated scf accuracy    <      29.52161248 Ry

     iteration #  5     ecut=    60.00 Ry     beta= 0.75
     Davidson diagonalization with overlap
     ethr =  1.00E-02,  avg # of iterations =  3.6

     negative rho (up, down):  8.775E-04 0.000E+00

     total cpu time spent up to now is       66.0 secs

     total energy              =    -633.60899246 Ry
     Harris-Foulkes estimate   =    -634.12726051 Ry
     estimated scf accuracy    <       9.34205590 Ry

     iteration #  6     ecut=    60.00 Ry     beta= 0.75
     Davidson diagonalization with overlap
     ethr =  1.00E-02,  avg # of iterations =  1.0

     negative rho (up, down):  9.455E-04 0.000E+00

     total cpu time spent up to now is       72.9 secs

     total energy              =    -633.74691054 Ry
     Harris-Foulkes estimate   =    -633.86757827 Ry
     estimated scf accuracy    <       0.54445841 Ry

     iteration #  7     ecut=    60.00 Ry     beta= 0.75
     Davidson diagonalization with overlap
     ethr =  7.56E-04,  avg # of iterations =  2.0

     negative rho (up, down):  1.006E-03 0.000E+00

     total cpu time spent up to now is       80.3 secs

     total energy              =    -633.81291403 Ry
     Harris-Foulkes estimate   =    -633.90356487 Ry
     estimated scf accuracy    <       3.36688579 Ry

     iteration #  8     ecut=    60.00 Ry     beta= 0.75
     Davidson diagonalization with overlap
     ethr =  7.56E-04,  avg # of iterations =  1.0

     negative rho (up, down):  1.060E-03 0.000E+00

     total cpu time spent up to now is       87.2 secs

     total energy              =    -633.81456879 Ry
     Harris-Foulkes estimate   =    -633.83701981 Ry
     estimated scf accuracy    <       0.66531054 Ry

     iteration #  9     ecut=    60.00 Ry     beta= 0.75
     Davidson diagonalization with overlap
     ethr =  7.56E-04,  avg # of iterations =  1.0

     negative rho (up, down):  1.137E-03 0.000E+00

     total cpu time spent up to now is       94.1 secs

     total energy              =    -633.79734013 Ry
     Harris-Foulkes estimate   =    -633.82127966 Ry
     estimated scf accuracy    <       0.41173862 Ry

     iteration # 10     ecut=    60.00 Ry     beta= 0.75
     Davidson diagonalization with overlap
     ethr =  5.72E-04,  avg # of iterations =  1.0

     negative rho (up, down):  1.147E-03 0.000E+00

     total cpu time spent up to now is      100.9 secs

          k = 0.0000 0.0000 0.0000     band energies (ev):

   -19.1479 -18.7131 -17.8299 -15.3133  -7.1353  -7.0811  -7.0696  -7.0696
    -6.9417  -6.9417  -6.2382  -6.0856  -6.0856  -6.0599  -6.0598  -6.0332
    -5.9108  -5.9108  -5.8436  -5.8435  -5.5365  -5.5361  -4.8272  -4.5665
    -4.5628  -3.9733  -2.9661  -2.1240  -2.1239  -1.8538  -1.6873  -1.6872
    -0.7702  -0.7586  -0.5567   0.5719   0.6674   2.1384   3.4452   4.9593

          k = 0.0000 0.0000 0.0517     band energies (ev):

   -19.1479 -18.7131 -17.8299 -15.3133  -7.1353  -7.0811  -7.0696  -7.0696
    -6.9417  -6.9417  -6.2382  -6.0856  -6.0856  -6.0599  -6.0598  -6.0332
    -5.9108  -5.9108  -5.8436  -5.8436  -5.5365  -5.5361  -4.8272  -4.5665
    -4.5629  -3.9733  -2.9661  -2.1240  -2.1239  -1.8538  -1.6873  -1.6872
    -0.7702  -0.7587  -0.5567   0.5719   0.6674   2.1386   3.4500   4.9361

          k = 0.0000 0.2887 0.0000     band energies (ev):

   -18.9028 -18.5351 -17.6357 -15.2039  -7.3016  -7.1298  -6.8960  -6.8752
    -6.7505  -6.7314  -6.2643  -6.1696  -6.0939  -6.0331  -5.9713  -5.9445
    -5.9094  -5.8792  -5.8364  -5.6016  -5.3737  -5.3342  -4.6605  -4.5859
    -4.5595  -4.0730  -3.6398  -3.1991  -2.7145  -2.6748  -2.1555  -1.9969
    -1.2809  -1.2605  -0.2797  -0.0986   0.4659   2.3349   3.6446   4.9225

          k = 0.0000 0.2887 0.0517     band energies (ev):

   -18.9028 -18.5351 -17.6357 -15.2039  -7.3016  -7.1298  -6.8960  -6.8752
    -6.7505  -6.7314  -6.2643  -6.1696  -6.0939  -6.0331  -5.9713  -5.9445
    -5.9094  -5.8792  -5.8364  -5.6016  -5.3737  -5.3342  -4.6605  -4.5859
    -4.5595  -4.0730  -3.6398  -3.1991  -2.7145  -2.6748  -2.1555  -1.9969
    -1.2809  -1.2605  -0.2797  -0.0986   0.4659   2.3349   3.6446   4.9222

          k = 0.0000-0.5774 0.0000     band energies (ev):

   -18.6356 -18.3585 -17.4310 -15.0907  -7.3249  -7.1633  -6.7540  -6.5870
    -6.5041  -6.4658  -6.2751  -6.2226  -6.2037  -5.9471  -5.9183  -5.8832
    -5.8476  -5.8071  -5.7145  -5.5057  -5.2691  -5.2174  -4.9965  -4.6366
    -4.4851  -4.4732  -4.3248  -3.6979  -3.3461  -2.9844  -2.6610  -2.2646
    -1.7841  -0.6257  -0.3269   0.3607   1.0342   1.2167   4.3911   4.9651

          k = 0.0000-0.5774 0.0517     band energies (ev):

   -18.6356 -18.3585 -17.4310 -15.0907  -7.3249  -7.1633  -6.7540  -6.5870
    -6.5041  -6.4658  -6.2751  -6.2226  -6.2037  -5.9471  -5.9183  -5.8832
    -5.8476  -5.8071  -5.7145  -5.5057  -5.2691  -5.2174  -4.9965  -4.6366
    -4.4851  -4.4732  -4.3248  -3.6979  -3.3461  -2.9844  -2.6610  -2.2646
    -1.7841  -0.6257  -0.3269   0.3607   1.0342   1.2167   4.3911   4.9651

          k = 0.2500 0.4330 0.0000     band energies (ev):

   -18.6398 -18.3594 -17.4330 -15.0909  -7.1231  -6.9601  -6.8715  -6.7114
    -6.5574  -6.5074  -6.2342  -6.1362  -6.0759  -5.9971  -5.9528  -5.9244
    -5.8863  -5.8610  -5.6398  -5.4085  -5.3049  -5.0690  -4.8045  -4.6497
    -4.5981  -4.4454  -4.1026  -3.8251  -3.6091  -3.2552  -2.9489  -2.4914
    -2.0731  -0.3811  -0.3033   0.0914   0.2316   3.8439   4.6373   4.8070

          k = 0.2500 0.4330 0.0517     band energies (ev):

   -18.6398 -18.3594 -17.4330 -15.0909  -7.1231  -6.9601  -6.8715  -6.7114
    -6.5574  -6.5074  -6.2342  -6.1362  -6.0759  -5.9971  -5.9528  -5.9244
    -5.8863  -5.8610  -5.6398  -5.4085  -5.3049  -5.0690  -4.8045  -4.6497
    -4.5981  -4.4454  -4.1026  -3.8251  -3.6091  -3.2552  -2.9489  -2.4914
    -2.0731  -0.3811  -0.3034   0.0914   0.2316   3.8439   4.6371   4.8068

          k = 0.0000-0.2887 0.0517     band energies (ev):

   -18.9028 -18.5351 -17.6357 -15.2039  -7.3016  -7.1298  -6.8960  -6.8752
    -6.7505  -6.7314  -6.2643  -6.1696  -6.0939  -6.0331  -5.9713  -5.9445
    -5.9094  -5.8792  -5.8364  -5.6016  -5.3737  -5.3342  -4.6605  -4.5859
    -4.5595  -4.0730  -3.6398  -3.1991  -2.7145  -2.6748  -2.1555  -1.9969
    -1.2809  -1.2605  -0.2797  -0.0986   0.4659   2.3349   3.6445   4.9217

     the Fermi energy is     0.3588 ev

!    total energy              =    -633.80488048 Ry
     Harris-Foulkes estimate   =    -633.80744060 Ry
     estimated scf accuracy    <       0.05182794 Ry

     The total energy is the sum of the following terms:

     one-electron contribution =   -3490.70476014 Ry
     hartree contribution      =    1790.00722662 Ry
     xc contribution           =    -101.78626572 Ry
     ewald contribution        =    1157.51503026 Ry
     scf correction            =      11.22647644 Ry
     smearing contrib. (-TS)   =      -0.06258794 Ry

     iteration # 11     ecut=    60.00 Ry     beta= 0.75
     Davidson diagonalization with overlap
     ethr =  7.20E-05,  avg # of iterations =  3.7

     negative rho (up, down):  1.237E-03 0.000E+00

     total cpu time spent up to now is      108.3 secs

     total energy              =    -633.79897687 Ry
     Harris-Foulkes estimate   =    -633.80662511 Ry
     estimated scf accuracy    <       0.03519675 Ry

     iteration # 12     ecut=    60.00 Ry     beta= 0.75
     Davidson diagonalization with overlap
     ethr =  4.89E-05,  avg # of iterations =  3.0

     negative rho (up, down):  1.238E-03 0.000E+00

     total cpu time spent up to now is      115.9 secs

     total energy              =    -633.80018381 Ry
     Harris-Foulkes estimate   =    -633.80290527 Ry
     estimated scf accuracy    <       0.04011918 Ry

     iteration # 13     ecut=    60.00 Ry     beta= 0.75
     Davidson diagonalization with overlap
     ethr =  4.89E-05,  avg # of iterations =  1.0

     negative rho (up, down):  1.268E-03 0.000E+00

     total cpu time spent up to now is      122.7 secs

     total energy              =    -633.80127283 Ry
     Harris-Foulkes estimate   =    -633.80179461 Ry
     estimated scf accuracy    <       0.00224540 Ry

     iteration # 14     ecut=    60.00 Ry     beta= 0.75
     Davidson diagonalization with overlap
     ethr =  3.12E-06,  avg # of iterations =  3.2

     negative rho (up, down):  1.267E-03 0.000E+00

     total cpu time spent up to now is      131.0 secs

     total energy              =    -633.80141805 Ry
     Harris-Foulkes estimate   =    -633.80173615 Ry
     estimated scf accuracy    <       0.00078115 Ry

     iteration # 15     ecut=    60.00 Ry     beta= 0.75
     Davidson diagonalization with overlap
     ethr =  1.08E-06,  avg # of iterations =  3.4

     negative rho (up, down):  1.273E-03 0.000E+00

     total cpu time spent up to now is      139.3 secs

     total energy              =    -633.80155749 Ry
     Harris-Foulkes estimate   =    -633.80158170 Ry
     estimated scf accuracy    <       0.00015827 Ry

     iteration # 16     ecut=    60.00 Ry     beta= 0.75
     Davidson diagonalization with overlap
     ethr =  2.20E-07,  avg # of iterations =  2.0

     negative rho (up, down):  1.275E-03 0.000E+00

     total cpu time spent up to now is      146.4 secs

     total energy              =    -633.80156819 Ry
     Harris-Foulkes estimate   =    -633.80157363 Ry
     estimated scf accuracy    <       0.00009519 Ry

     iteration # 17     ecut=    60.00 Ry     beta= 0.75
     Davidson diagonalization with overlap
     ethr =  1.32E-07,  avg # of iterations =  1.0

     negative rho (up, down):  1.276E-03 0.000E+00

     total cpu time spent up to now is      153.3 secs

     total energy              =    -633.80157112 Ry
     Harris-Foulkes estimate   =    -633.80157229 Ry
     estimated scf accuracy    <       0.00000588 Ry

     iteration # 18     ecut=    60.00 Ry     beta= 0.75
     Davidson diagonalization with overlap
     ethr =  8.17E-09,  avg # of iterations =  2.2

     negative rho (up, down):  1.276E-03 0.000E+00

     total cpu time spent up to now is      160.8 secs

     total energy              =    -633.80157184 Ry
     Harris-Foulkes estimate   =    -633.80157191 Ry
     estimated scf accuracy    <       0.00000013 Ry

     iteration # 19     ecut=    60.00 Ry     beta= 0.75
     Davidson diagonalization with overlap
     ethr =  1.83E-10,  avg # of iterations =  3.0

     negative rho (up, down):  1.276E-03 0.000E+00

     total cpu time spent up to now is      170.6 secs

     total energy              =    -633.80157191 Ry
     Harris-Foulkes estimate   =    -633.80157192 Ry
     estimated scf accuracy    <       0.00000003 Ry

     iteration # 20     ecut=    60.00 Ry     beta= 0.75
     Davidson diagonalization with overlap
     ethr =  3.69E-11,  avg # of iterations =  3.0

     negative rho (up, down):  1.276E-03 0.000E+00

     total cpu time spent up to now is      179.3 secs

          k = 0.0000 0.0000 0.0000     band energies (ev):

   -18.5438 -18.0371 -17.5130 -15.3353  -6.8089  -6.5050  -6.5050  -6.3310
    -6.2420  -6.2420  -6.0808  -6.0061  -6.0061  -5.9531  -5.9531  -5.6896
    -5.5492  -5.5492  -5.2656  -5.2656  -4.8056  -4.8056  -4.4508  -4.4508
    -4.4248  -3.7251  -2.6342  -1.5507  -1.4805  -1.4805  -0.9672  -0.9672
    -0.4854  -0.4854  -0.3346   0.5678   0.5678   1.0868   2.4977   3.8841

          k = 0.0000 0.0000 0.0517     band energies (ev):

   -18.5438 -18.0371 -17.5130 -15.3353  -6.8089  -6.5050  -6.5050  -6.3310
    -6.2420  -6.2420  -6.0808  -6.0061  -6.0061  -5.9531  -5.9531  -5.6896
    -5.5492  -5.5492  -5.2656  -5.2656  -4.8056  -4.8056  -4.4508  -4.4508
    -4.4248  -3.7251  -2.6342  -1.5507  -1.4805  -1.4805  -0.9672  -0.9672
    -0.4854  -0.4854  -0.3346   0.5678   0.5678   1.0868   2.4978   3.8835

          k = 0.0000 0.2887 0.0000     band energies (ev):

   -18.3120 -17.8330 -17.3322 -15.2261  -6.7757  -6.6192  -6.3811  -6.3303
    -6.2151  -6.1290  -6.0599  -5.9810  -5.9163  -5.8070  -5.7468  -5.5951
    -5.3999  -5.3762  -5.2351  -5.1384  -4.7798  -4.7321  -4.5016  -4.4425
    -4.2434  -3.6022  -3.0999  -2.6716  -2.2074  -2.0570  -1.5932  -1.4868
    -1.1658  -0.9437  -0.2074  -0.1019   0.4618   2.9117   3.9775   5.1055

          k = 0.0000 0.2887 0.0517     band energies (ev):

   -18.3120 -17.8330 -17.3322 -15.2261  -6.7757  -6.6192  -6.3811  -6.3303
    -6.2151  -6.1290  -6.0599  -5.9810  -5.9163  -5.8070  -5.7468  -5.5951
    -5.3999  -5.3762  -5.2351  -5.1384  -4.7798  -4.7321  -4.5016  -4.4425
    -4.2434  -3.6022  -3.0999  -2.6716  -2.2074  -2.0570  -1.5932  -1.4868
    -1.1658  -0.9437  -0.2074  -0.1019   0.4618   2.9117   3.9776   5.1047

          k = 0.0000-0.5774 0.0000     band energies (ev):

   -18.0665 -17.6196 -17.1430 -15.1133  -6.8522  -6.5407  -6.4075  -6.3083
    -6.2521  -6.0128  -5.9446  -5.8633  -5.8427  -5.6699  -5.5882  -5.3245
    -5.2229  -5.1342  -5.1034  -4.8722  -4.7116  -4.6616  -4.5615  -4.3906
    -4.3666  -4.2264  -3.8652  -3.3367  -2.6856  -2.4285  -2.0464  -1.7761
    -1.4307  -0.6262  -0.3216   0.3560   0.8942   1.1008   5.0725   5.3937

          k = 0.0000-0.5774 0.0517     band energies (ev):

   -18.0665 -17.6196 -17.1430 -15.1133  -6.8522  -6.5407  -6.4075  -6.3083
    -6.2521  -6.0128  -5.9446  -5.8633  -5.8427  -5.6699  -5.5882  -5.3245
    -5.2229  -5.1342  -5.1034  -4.8722  -4.7116  -4.6616  -4.5615  -4.3906
    -4.3666  -4.2265  -3.8652  -3.3367  -2.6856  -2.4285  -2.0464  -1.7761
    -1.4307  -0.6262  -0.3216   0.3560   0.8942   1.1008   5.0725   5.3937

          k = 0.2500 0.4330 0.0000     band energies (ev):

   -18.0699 -17.6219 -17.1446 -15.1135  -6.6487  -6.5838  -6.3996  -6.2570
    -6.1356  -6.0632  -6.0079  -5.8437  -5.8094  -5.6599  -5.5212  -5.4602
    -5.2695  -5.1764  -5.0976  -4.9363  -4.6827  -4.6201  -4.4569  -4.4186
    -4.2695  -3.9151  -3.5599  -3.4424  -3.2304  -2.7090  -2.4105  -1.9586
    -1.6458  -0.3825  -0.3030   0.0852   0.1136   3.7351   4.6473   5.2724

          k = 0.2500 0.4330 0.0517     band energies (ev):

   -18.0699 -17.6219 -17.1446 -15.1135  -6.6487  -6.5838  -6.3996  -6.2570
    -6.1356  -6.0632  -6.0079  -5.8437  -5.8094  -5.6599  -5.5212  -5.4602
    -5.2695  -5.1764  -5.0976  -4.9363  -4.6827  -4.6201  -4.4569  -4.4186
    -4.2695  -3.9151  -3.5599  -3.4424  -3.2304  -2.7090  -2.4105  -1.9586
    -1.6458  -0.3825  -0.3030   0.0852   0.1136   3.7351   4.6473   5.2724

          k = 0.0000-0.2887 0.0517     band energies (ev):

   -18.3120 -17.8330 -17.3322 -15.2261  -6.7757  -6.6192  -6.3811  -6.3303
    -6.2151  -6.1290  -6.0599  -5.9810  -5.9163  -5.8070  -5.7468  -5.5951
    -5.3999  -5.3762  -5.2351  -5.1384  -4.7798  -4.7321  -4.5016  -4.4425
    -4.2434  -3.6022  -3.0999  -2.6716  -2.2074  -2.0570  -1.5932  -1.4868
    -1.1658  -0.9437  -0.2074  -0.1019   0.4618   2.9117   3.9776   5.1048

     the Fermi energy is     0.3371 ev

!    total energy              =    -633.80157191 Ry
     Harris-Foulkes estimate   =    -633.80157192 Ry
     estimated scf accuracy    <       0.00000002 Ry

     The total energy is the sum of the following terms:

     one-electron contribution =   -3481.15320599 Ry
     hartree contribution      =    1791.71497409 Ry
     xc contribution           =    -101.81381693 Ry
     ewald contribution        =    1157.51503026 Ry
     scf correction            =       0.00268678 Ry
     smearing contrib. (-TS)   =      -0.06724012 Ry

     iteration # 21     ecut=    60.00 Ry     beta= 0.75
     Davidson diagonalization with overlap
     ethr =  2.12E-11,  avg # of iterations =  2.4

     negative rho (up, down):  1.276E-03 0.000E+00

     total cpu time spent up to now is      187.7 secs

     total energy              =    -633.80157191 Ry
     Harris-Foulkes estimate   =    -633.80157192 Ry
     estimated scf accuracy    <          5.3E-09 Ry

     iteration # 22     ecut=    60.00 Ry     beta= 0.75
     Davidson diagonalization with overlap
     ethr =  7.39E-12,  avg # of iterations =  2.0

     negative rho (up, down):  1.276E-03 0.000E+00

     total cpu time spent up to now is      195.3 secs

     End of self-consistent calculation

          k = 0.0000 0.0000 0.0000 ( 10533 PWs)   bands (ev):

   -18.5437 -18.0371 -17.5129 -15.3353  -6.8087  -6.5046  -6.5046  -6.3309
    -6.2421  -6.2421  -6.0808  -6.0062  -6.0062  -5.9530  -5.9530  -5.6895
    -5.5492  -5.5492  -5.2651  -5.2651  -4.8058  -4.8058  -4.4508  -4.4508
    -4.4247  -3.7250  -2.6342  -1.5507  -1.4802  -1.4802  -0.9673  -0.9673
    -0.4853  -0.4853  -0.3346   0.5678   0.5678   1.0869   2.4977   3.8842

          k = 0.0000 0.0000 0.0517 ( 10526 PWs)   bands (ev):

   -18.5437 -18.0371 -17.5129 -15.3353  -6.8087  -6.5046  -6.5046  -6.3309
    -6.2421  -6.2421  -6.0808  -6.0062  -6.0062  -5.9530  -5.9530  -5.6895
    -5.5492  -5.5492  -5.2651  -5.2651  -4.8058  -4.8058  -4.4508  -4.4508
    -4.4247  -3.7250  -2.6342  -1.5507  -1.4802  -1.4802  -0.9673  -0.9673
    -0.4853  -0.4853  -0.3346   0.5678   0.5678   1.0869   2.4979   3.8836

          k = 0.0000 0.2887 0.0000 ( 10451 PWs)   bands (ev):

   -18.3119 -17.8331 -17.3320 -15.2261  -6.7754  -6.6190  -6.3808  -6.3303
    -6.2151  -6.1290  -6.0597  -5.9809  -5.9161  -5.8070  -5.7467  -5.5951
    -5.3997  -5.3762  -5.2347  -5.1381  -4.7800  -4.7322  -4.5016  -4.4425
    -4.2433  -3.6019  -3.0997  -2.6716  -2.2074  -2.0568  -1.5932  -1.4868
    -1.1658  -0.9436  -0.2074  -0.1019   0.4618   2.9118   3.9775   5.1056

          k = 0.0000 0.2887 0.0517 ( 10482 PWs)   bands (ev):

   -18.3119 -17.8331 -17.3320 -15.2261  -6.7754  -6.6190  -6.3808  -6.3303
    -6.2151  -6.1290  -6.0597  -5.9809  -5.9161  -5.8070  -5.7467  -5.5951
    -5.3997  -5.3762  -5.2347  -5.1381  -4.7800  -4.7322  -4.5016  -4.4425
    -4.2433  -3.6019  -3.0997  -2.6716  -2.2074  -2.0568  -1.5932  -1.4868
    -1.1658  -0.9436  -0.2074  -0.1019   0.4618   2.9118   3.9777   5.1048

          k = 0.0000-0.5774 0.0000 ( 10442 PWs)   bands (ev):

   -18.0663 -17.6198 -17.1428 -15.1133  -6.8519  -6.5406  -6.4075  -6.3081
    -6.2521  -6.0128  -5.9444  -5.8631  -5.8425  -5.6696  -5.5882  -5.3246
    -5.2225  -5.1336  -5.1032  -4.8721  -4.7118  -4.6617  -4.5615  -4.3905
    -4.3666  -4.2264  -3.8652  -3.3366  -2.6854  -2.4284  -2.0464  -1.7761
    -1.4306  -0.6262  -0.3216   0.3560   0.8942   1.1008   5.0726   5.3938

          k = 0.0000-0.5774 0.0517 ( 10468 PWs)   bands (ev):

   -18.0663 -17.6198 -17.1428 -15.1133  -6.8519  -6.5406  -6.4075  -6.3081
    -6.2521  -6.0128  -5.9444  -5.8631  -5.8425  -5.6696  -5.5882  -5.3246
    -5.2225  -5.1336  -5.1032  -4.8721  -4.7118  -4.6617  -4.5615  -4.3905
    -4.3666  -4.2264  -3.8652  -3.3366  -2.6854  -2.4284  -2.0464  -1.7761
    -1.4306  -0.6262  -0.3216   0.3560   0.8942   1.1008   5.0726   5.3938

          k = 0.2500 0.4330 0.0000 ( 10444 PWs)   bands (ev):

   -18.0697 -17.6221 -17.1444 -15.1135  -6.6485  -6.5836  -6.3995  -6.2570
    -6.1356  -6.0631  -6.0077  -5.8435  -5.8091  -5.6597  -5.5210  -5.4602
    -5.2693  -5.1764  -5.0972  -4.9362  -4.6828  -4.6201  -4.4570  -4.4184
    -4.2695  -3.9150  -3.5598  -3.4423  -3.2303  -2.7089  -2.4104  -1.9586
    -1.6457  -0.3825  -0.3030   0.0852   0.1135   3.7351   4.6473   5.2726

          k = 0.2500 0.4330 0.0517 ( 10429 PWs)   bands (ev):

   -18.0697 -17.6221 -17.1444 -15.1135  -6.6485  -6.5836  -6.3995  -6.2570
    -6.1356  -6.0631  -6.0077  -5.8435  -5.8091  -5.6597  -5.5210  -5.4602
    -5.2693  -5.1764  -5.0972  -4.9362  -4.6828  -4.6201  -4.4570  -4.4184
    -4.2695  -3.9150  -3.5598  -3.4423  -3.2303  -2.7089  -2.4104  -1.9586
    -1.6457  -0.3825  -0.3030   0.0852   0.1135   3.7351   4.6473   5.2726

          k = 0.0000-0.2887 0.0517 ( 10482 PWs)   bands (ev):

   -18.3119 -17.8331 -17.3320 -15.2261  -6.7754  -6.6190  -6.3808  -6.3303
    -6.2151  -6.1290  -6.0597  -5.9809  -5.9161  -5.8070  -5.7467  -5.5951
    -5.3997  -5.3762  -5.2347  -5.1381  -4.7800  -4.7322  -4.5016  -4.4425
    -4.2433  -3.6019  -3.0997  -2.6716  -2.2074  -2.0568  -1.5932  -1.4868
    -1.1658  -0.9436  -0.2074  -0.1019   0.4618   2.9118   3.9777   5.1049

     the Fermi energy is     0.3371 ev

!    total energy              =    -633.80157192 Ry
     Harris-Foulkes estimate   =    -633.80157192 Ry
     estimated scf accuracy    <          6.2E-10 Ry

     The total energy is the sum of the following terms:

     one-electron contribution =   -3481.15091787 Ry
     hartree contribution      =    1791.71539146 Ry
     xc contribution           =    -101.81383476 Ry
     ewald contribution        =    1157.51503026 Ry
     smearing contrib. (-TS)   =      -0.06724100 Ry

     convergence has been achieved in  22 iterations

     Forces acting on atoms (cartesian axes, Ry/au):

     atom    1 type  2   force =     0.00000000    0.00000000    0.04247641
     atom    2 type  1   force =     0.00000000    0.00000000   -0.06183187
     atom    3 type  2   force =     0.00000000    0.00000000    0.02481300
     atom    4 type  1   force =     0.00000000    0.00000000   -0.01508775
     atom    5 type  2   force =     0.00000000   -0.00000000    0.01564470
     atom    6 type  1   force =     0.00000000    0.00000000   -0.01020251
     atom    7 type  2   force =     0.00000000    0.00000000    0.00068723
     atom    8 type  1   force =    -0.00000000    0.00000000    0.00350079

     Total force =     0.075101     Total SCF correction =     0.000084


     Computing stress (Cartesian axis) and pressure

          total   stress  (Ry/bohr**3)                   (kbar)     P=  -11.88
  -0.00005901  -0.00000000   0.00000000         -8.68     -0.00      0.00
  -0.00000000  -0.00005901  -0.00000000         -0.00     -8.68     -0.00
   0.00000000  -0.00000000  -0.00012417          0.00     -0.00    -18.27


     BFGS Geometry Optimization

     number of scf cycles    =   1
     number of bfgs steps    =   0

     energy   new            =    -633.8015719154 Ry

     new trust radius        =       0.0618318687 bohr
     new conv_thr            =       0.0000000010 Ry


ATOMIC_POSITIONS (crystal)
O        0.333333333  -0.333333333   0.001061833    0   0   1
Zn       0.333333333  -0.333333333   0.093454315    0   0   1
O        0.666666667   0.333333333   0.125000000    0   0   0
Zn       0.666666667   0.333333333   0.220000000    0   0   0
O        0.333333333  -0.333333333   0.250000000    0   0   0
Zn       0.333333333  -0.333333333   0.345000000    0   0   0
O        0.666666667   0.333333333   0.375017180    0   0   1
Zn       0.666666667   0.333333333   0.470087513    0   0   1



     Writing output data file ZnO.save/
     NEW-OLD atomic charge density approx. for the potential

     negative rho (up, down):  1.320E-03 0.000E+00

     total cpu time spent up to now is      209.8 secs

     Self-consistent Calculation

     iteration #  1     ecut=    60.00 Ry     beta= 0.75
     Davidson diagonalization with overlap
     ethr =  1.00E-06,  avg # of iterations =  4.2

     negative rho (up, down):  1.328E-03 0.000E+00

     total cpu time spent up to now is      221.7 secs

     total energy              =    -633.79841727 Ry
     Harris-Foulkes estimate   =    -633.80678395 Ry
     estimated scf accuracy    <       0.00933498 Ry

     iteration #  2     ecut=    60.00 Ry     beta= 0.75
     Davidson diagonalization with overlap
     ethr =  1.30E-05,  avg # of iterations =  5.3

     negative rho (up, down):  1.314E-03 0.000E+00

     total cpu time spent up to now is      231.3 secs

     total energy              =    -633.67729543 Ry
     Harris-Foulkes estimate   =    -634.01274383 Ry
     estimated scf accuracy    <       6.39289477 Ry

     iteration #  3     ecut=    60.00 Ry     beta= 0.75
     Davidson diagonalization with overlap
     ethr =  1.30E-05,  avg # of iterations =  5.0

     negative rho (up, down):  1.340E-03 0.000E+00

     total cpu time spent up to now is      240.8 secs

     total energy              =    -633.80626140 Ry
     Harris-Foulkes estimate   =    -633.80685778 Ry
     estimated scf accuracy    <       0.00252673 Ry

     iteration #  4     ecut=    60.00 Ry     beta= 0.75
     Davidson diagonalization with overlap
     ethr =  3.51E-06,  avg # of iterations =  3.6

     negative rho (up, down):  1.341E-03 0.000E+00

     total cpu time spent up to now is      248.4 secs

     total energy              =    -633.80643424 Ry
     Harris-Foulkes estimate   =    -633.80671273 Ry
     estimated scf accuracy    <       0.00268119 Ry

     iteration #  5     ecut=    60.00 Ry     beta= 0.75
     Davidson diagonalization with overlap
     ethr =  3.51E-06,  avg # of iterations =  2.8

     negative rho (up, down):  1.348E-03 0.000E+00

     total cpu time spent up to now is      255.6 secs

     total energy              =    -633.80656625 Ry
     Harris-Foulkes estimate   =    -633.80662195 Ry
     estimated scf accuracy    <       0.00023378 Ry

     iteration #  6     ecut=    60.00 Ry     beta= 0.75
     Davidson diagonalization with overlap
     ethr =  3.25E-07,  avg # of iterations =  2.4

     negative rho (up, down):  1.349E-03 0.000E+00

     total cpu time spent up to now is      262.9 secs

     total energy              =    -633.80659385 Ry
     Harris-Foulkes estimate   =    -633.80659977 Ry
     estimated scf accuracy    <       0.00001635 Ry

     iteration #  7     ecut=    60.00 Ry     beta= 0.75
     Davidson diagonalization with overlap
     ethr =  2.27E-08,  avg # of iterations =  2.6

     negative rho (up, down):  1.349E-03 0.000E+00

     total cpu time spent up to now is      271.2 secs

     total energy              =    -633.80659682 Ry
     Harris-Foulkes estimate   =    -633.80659815 Ry
     estimated scf accuracy    <       0.00002722 Ry

     iteration #  8     ecut=    60.00 Ry     beta= 0.75
     Davidson diagonalization with overlap
     ethr =  2.27E-08,  avg # of iterations =  1.0

     negative rho (up, down):  1.349E-03 0.000E+00

     total cpu time spent up to now is      278.1 secs

     total energy              =    -633.80659733 Ry
     Harris-Foulkes estimate   =    -633.80659746 Ry
     estimated scf accuracy    <       0.00000098 Ry

     iteration #  9     ecut=    60.00 Ry     beta= 0.75
     Davidson diagonalization with overlap
     ethr =  1.36E-09,  avg # of iterations =  2.0

     negative rho (up, down):  1.349E-03 0.000E+00

     total cpu time spent up to now is      285.4 secs

     total energy              =    -633.80659738 Ry
     Harris-Foulkes estimate   =    -633.80659741 Ry
     estimated scf accuracy    <       0.00000012 Ry

     iteration # 10     ecut=    60.00 Ry     beta= 0.75
     Davidson diagonalization with overlap
     ethr =  1.69E-10,  avg # of iterations =  2.6

     negative rho (up, down):  1.349E-03 0.000E+00

     total cpu time spent up to now is      293.7 secs

          k = 0.0000 0.0000 0.0000     band energies (ev):

   -18.5383 -18.0073 -17.4353 -15.4360  -6.8108  -6.5033  -6.5033  -6.3252
    -6.2581  -6.2581  -6.0702  -5.9872  -5.9872  -5.9551  -5.9551  -5.6711
    -5.4937  -5.4937  -5.2572  -5.2572  -4.7776  -4.7776  -4.4790  -4.4790
    -4.4377  -3.7503  -2.6411  -1.5586  -1.4754  -1.4754  -0.9492  -0.9492
    -0.4841  -0.4841  -0.3251   0.5430   0.5430   1.1107   2.5364   3.9232

          k = 0.0000 0.0000 0.0517     band energies (ev):

   -18.5383 -18.0073 -17.4353 -15.4360  -6.8108  -6.5033  -6.5033  -6.3252
    -6.2581  -6.2581  -6.0702  -5.9872  -5.9872  -5.9551  -5.9551  -5.6711
    -5.4937  -5.4937  -5.2572  -5.2572  -4.7776  -4.7776  -4.4790  -4.4790
    -4.4377  -3.7503  -2.6411  -1.5586  -1.4755  -1.4755  -0.9492  -0.9492
    -0.4841  -0.4841  -0.3250   0.5430   0.5430   1.1107   2.5366   3.9225

          k = 0.0000 0.2887 0.0000     band energies (ev):

   -18.3076 -17.8050 -17.2521 -15.3283  -6.7752  -6.6199  -6.3833  -6.3431
    -6.1968  -6.1451  -6.0429  -5.9825  -5.9201  -5.7842  -5.7212  -5.5677
    -5.3713  -5.3340  -5.2239  -5.1241  -4.7533  -4.7161  -4.5329  -4.4677
    -4.2605  -3.6071  -3.1034  -2.6627  -2.1985  -2.0498  -1.5873  -1.4679
    -1.1678  -0.9249  -0.2169  -0.1247   0.4413   2.9314   4.0114   5.1287

          k = 0.0000 0.2887 0.0517     band energies (ev):

   -18.3076 -17.8050 -17.2521 -15.3283  -6.7752  -6.6199  -6.3833  -6.3431
    -6.1968  -6.1451  -6.0429  -5.9825  -5.9201  -5.7842  -5.7212  -5.5677
    -5.3713  -5.3340  -5.2239  -5.1241  -4.7533  -4.7161  -4.5329  -4.4677
    -4.2605  -3.6071  -3.1034  -2.6627  -2.1985  -2.0498  -1.5873  -1.4679
    -1.1678  -0.9249  -0.2169  -0.1247   0.4413   2.9314   4.0115   5.1278

          k = 0.0000-0.5774 0.0000     band energies (ev):

   -18.0635 -17.5937 -17.0601 -15.2170  -6.8526  -6.5407  -6.4219  -6.3147
    -6.2359  -6.0290  -5.9187  -5.8566  -5.8413  -5.6355  -5.5661  -5.2910
    -5.2071  -5.1291  -5.0859  -4.8668  -4.6888  -4.6471  -4.5798  -4.4177
    -4.3835  -4.2287  -3.8241  -3.3365  -2.6759  -2.4216  -2.0233  -1.7687
    -1.3944  -0.6387  -0.3560   0.3389   0.8784   1.0864   5.0949   5.4138

          k = 0.0000-0.5774 0.0517     band energies (ev):

   -18.0635 -17.5937 -17.0601 -15.2170  -6.8526  -6.5407  -6.4219  -6.3147
    -6.2359  -6.0290  -5.9187  -5.8566  -5.8413  -5.6355  -5.5661  -5.2910
    -5.2071  -5.1291  -5.0859  -4.8668  -4.6888  -4.6471  -4.5798  -4.4177
    -4.3835  -4.2287  -3.8241  -3.3365  -2.6759  -2.4216  -2.0233  -1.7687
    -1.3944  -0.6387  -0.3560   0.3389   0.8784   1.0864   5.0949   5.4138

          k = 0.2500 0.4330 0.0000     band energies (ev):

   -18.0668 -17.5959 -17.0618 -15.2172  -6.6512  -6.5876  -6.4056  -6.2718
    -6.1497  -6.0467  -5.9928  -5.8401  -5.8004  -5.6426  -5.4937  -5.4332
    -5.2419  -5.1508  -5.0860  -4.9149  -4.6670  -4.6268  -4.4825  -4.4235
    -4.2829  -3.9047  -3.5593  -3.4328  -3.2130  -2.6841  -2.3976  -1.9309
    -1.6299  -0.3948  -0.3347   0.0676   0.0987   3.7204   4.6336   5.2921

          k = 0.2500 0.4330 0.0517     band energies (ev):

   -18.0668 -17.5959 -17.0618 -15.2172  -6.6512  -6.5876  -6.4056  -6.2718
    -6.1497  -6.0467  -5.9928  -5.8401  -5.8004  -5.6426  -5.4937  -5.4332
    -5.2419  -5.1508  -5.0860  -4.9149  -4.6670  -4.6268  -4.4825  -4.4235
    -4.2829  -3.9047  -3.5593  -3.4328  -3.2130  -2.6841  -2.3976  -1.9309
    -1.6299  -0.3948  -0.3347   0.0676   0.0987   3.7204   4.6336   5.2921

          k = 0.0000-0.2887 0.0517     band energies (ev):

   -18.3076 -17.8050 -17.2521 -15.3283  -6.7752  -6.6199  -6.3833  -6.3431
    -6.1968  -6.1451  -6.0429  -5.9825  -5.9201  -5.7842  -5.7212  -5.5677
    -5.3713  -5.3340  -5.2239  -5.1241  -4.7533  -4.7161  -4.5329  -4.4677
    -4.2605  -3.6071  -3.1034  -2.6627  -2.1985  -2.0498  -1.5873  -1.4679
    -1.1678  -0.9249  -0.2169  -0.1247   0.4413   2.9314   4.0115   5.1279

     the Fermi energy is     0.3194 ev

!    total energy              =    -633.80659740 Ry
     Harris-Foulkes estimate   =    -633.80659741 Ry
     estimated scf accuracy    <       0.00000007 Ry

     The total energy is the sum of the following terms:

     one-electron contribution =   -3473.67310559 Ry
     hartree contribution      =    1787.99047382 Ry
     xc contribution           =    -101.81530085 Ry
     ewald contribution        =    1153.75817544 Ry
     scf correction            =       0.00042617 Ry
     smearing contrib. (-TS)   =      -0.06726638 Ry

     iteration # 11     ecut=    60.00 Ry     beta= 0.75
     Davidson diagonalization with overlap
     ethr =  9.54E-11,  avg # of iterations =  2.0

     negative rho (up, down):  1.349E-03 0.000E+00

     total cpu time spent up to now is      301.0 secs

     total energy              =    -633.80659740 Ry
     Harris-Foulkes estimate   =    -633.80659740 Ry
     estimated scf accuracy    <          5.7E-09 Ry

     iteration # 12     ecut=    60.00 Ry     beta= 0.75
     Davidson diagonalization with overlap
     ethr =  7.98E-12,  avg # of iterations =  2.0

     negative rho (up, down):  1.349E-03 0.000E+00

     total cpu time spent up to now is      308.6 secs

     End of self-consistent calculation

          k = 0.0000 0.0000 0.0000 ( 10533 PWs)   bands (ev):

   -18.5385 -18.0071 -17.4352 -15.4359  -6.8109  -6.5034  -6.5034  -6.3252
    -6.2579  -6.2579  -6.0701  -5.9871  -5.9871  -5.9550  -5.9550  -5.6709
    -5.4935  -5.4935  -5.2573  -5.2573  -4.7774  -4.7774  -4.4788  -4.4788
    -4.4377  -3.7502  -2.6411  -1.5586  -1.4757  -1.4757  -0.9490  -0.9490
    -0.4840  -0.4840  -0.3250   0.5431   0.5431   1.1107   2.5365   3.9233

          k = 0.0000 0.0000 0.0517 ( 10526 PWs)   bands (ev):

   -18.5385 -18.0071 -17.4352 -15.4359  -6.8109  -6.5034  -6.5034  -6.3252
    -6.2579  -6.2579  -6.0701  -5.9871  -5.9871  -5.9550  -5.9550  -5.6709
    -5.4935  -5.4935  -5.2573  -5.2573  -4.7774  -4.7774  -4.4788  -4.4788
    -4.4377  -3.7502  -2.6411  -1.5586  -1.4757  -1.4757  -0.9490  -0.9490
    -0.4840  -0.4840  -0.3250   0.5430   0.5430   1.1107   2.5367   3.9226

          k = 0.0000 0.2887 0.0000 ( 10451 PWs)   bands (ev):

   -18.3079 -17.8047 -17.2521 -15.3282  -6.7752  -6.6199  -6.3833  -6.3429
    -6.1966  -6.1449  -6.0429  -5.9825  -5.9201  -5.7841  -5.7211  -5.5676
    -5.3712  -5.3338  -5.2240  -5.1241  -4.7532  -4.7159  -4.5327  -4.4674
    -4.2604  -3.6072  -3.1034  -2.6625  -2.1984  -2.0499  -1.5872  -1.4678
    -1.1679  -0.9248  -0.2168  -0.1246   0.4414   2.9314   4.0114   5.1287

          k = 0.0000 0.2887 0.0517 ( 10482 PWs)   bands (ev):

   -18.3079 -17.8047 -17.2521 -15.3282  -6.7752  -6.6199  -6.3833  -6.3429
    -6.1966  -6.1449  -6.0429  -5.9825  -5.9201  -5.7841  -5.7211  -5.5676
    -5.3712  -5.3338  -5.2240  -5.1241  -4.7532  -4.7159  -4.5327  -4.4674
    -4.2604  -3.6072  -3.1034  -2.6625  -2.1984  -2.0499  -1.5872  -1.4678
    -1.1679  -0.9248  -0.2168  -0.1246   0.4414   2.9314   4.0115   5.1279

          k = 0.0000-0.5774 0.0000 ( 10442 PWs)   bands (ev):

   -18.0638 -17.5933 -17.0601 -15.2169  -6.8526  -6.5407  -6.4218  -6.3147
    -6.2358  -6.0288  -5.9186  -5.8566  -5.8413  -5.6354  -5.5660  -5.2909
    -5.2071  -5.1292  -5.0857  -4.8668  -4.6886  -4.6470  -4.5796  -4.4174
    -4.3832  -4.2286  -3.8240  -3.3366  -2.6760  -2.4215  -2.0232  -1.7686
    -1.3943  -0.6386  -0.3559   0.3390   0.8783   1.0864   5.0950   5.4138

          k = 0.0000-0.5774 0.0517 ( 10468 PWs)   bands (ev):

   -18.0638 -17.5933 -17.0601 -15.2169  -6.8526  -6.5407  -6.4218  -6.3147
    -6.2358  -6.0288  -5.9186  -5.8566  -5.8413  -5.6354  -5.5660  -5.2909
    -5.2071  -5.1292  -5.0858  -4.8668  -4.6886  -4.6470  -4.5796  -4.4174
    -4.3832  -4.2286  -3.8240  -3.3366  -2.6760  -2.4215  -2.0232  -1.7686
    -1.3943  -0.6386  -0.3559   0.3390   0.8783   1.0864   5.0950   5.4138

          k = 0.2500 0.4330 0.0000 ( 10444 PWs)   bands (ev):

   -18.0671 -17.5955 -17.0618 -15.2171  -6.6512  -6.5876  -6.4056  -6.2717
    -6.1496  -6.0466  -5.9928  -5.8401  -5.8004  -5.6426  -5.4937  -5.4331
    -5.2418  -5.1507  -5.0860  -4.9148  -4.6668  -4.6266  -4.4822  -4.4235
    -4.2827  -3.9046  -3.5593  -3.4328  -3.2130  -2.6840  -2.3975  -1.9308
    -1.6298  -0.3947  -0.3346   0.0676   0.0986   3.7204   4.6335   5.2921

          k = 0.2500 0.4330 0.0517 ( 10429 PWs)   bands (ev):

   -18.0671 -17.5955 -17.0618 -15.2171  -6.6512  -6.5876  -6.4056  -6.2717
    -6.1496  -6.0466  -5.9928  -5.8401  -5.8004  -5.6426  -5.4937  -5.4331
    -5.2418  -5.1507  -5.0860  -4.9148  -4.6668  -4.6266  -4.4822  -4.4235
    -4.2827  -3.9046  -3.5593  -3.4328  -3.2130  -2.6840  -2.3975  -1.9308
    -1.6298  -0.3947  -0.3346   0.0676   0.0986   3.7204   4.6335   5.2921

          k = 0.0000-0.2887 0.0517 ( 10482 PWs)   bands (ev):

   -18.3079 -17.8047 -17.2521 -15.3282  -6.7752  -6.6199  -6.3833  -6.3429
    -6.1966  -6.1449  -6.0429  -5.9825  -5.9201  -5.7841  -5.7211  -5.5676
    -5.3712  -5.3338  -5.2240  -5.1241  -4.7532  -4.7159  -4.5327  -4.4674
    -4.2604  -3.6072  -3.1034  -2.6625  -2.1984  -2.0499  -1.5872  -1.4678
    -1.1679  -0.9248  -0.2168  -0.1246   0.4414   2.9314   4.0115   5.1279

     the Fermi energy is     0.3195 ev

!    total energy              =    -633.80659740 Ry
     Harris-Foulkes estimate   =    -633.80659740 Ry
     estimated scf accuracy    <          2.6E-10 Ry

     The total energy is the sum of the following terms:

     one-electron contribution =   -3473.67270779 Ry
     hartree contribution      =    1787.99050022 Ry
     xc contribution           =    -101.81529616 Ry
     ewald contribution        =    1153.75817544 Ry
     smearing contrib. (-TS)   =      -0.06726912 Ry

     convergence has been achieved in  12 iterations

     Forces acting on atoms (cartesian axes, Ry/au):

     atom    1 type  2   force =     0.00000000    0.00000000    0.03229354
     atom    2 type  1   force =     0.00000000   -0.00000000   -0.04797821
     atom    3 type  2   force =     0.00000000   -0.00000000    0.02294276
     atom    4 type  1   force =     0.00000000    0.00000000   -0.01744607
     atom    5 type  2   force =     0.00000000    0.00000000    0.01657970
     atom    6 type  1   force =     0.00000000    0.00000000   -0.01086161
     atom    7 type  2   force =     0.00000000    0.00000000    0.00177340
     atom    8 type  1   force =    -0.00000000    0.00000000    0.00269649

     Total force =     0.057924     Total SCF correction =     0.000109


     Computing stress (Cartesian axis) and pressure

          total   stress  (Ry/bohr**3)                   (kbar)     P=  -11.78
  -0.00006860   0.00000000   0.00000000        -10.09      0.00      0.00
   0.00000000  -0.00006860   0.00000000          0.00    -10.09      0.00
   0.00000000   0.00000000  -0.00010313          0.00      0.00    -15.17


     number of scf cycles    =   2
     number of bfgs steps    =   1

     energy   old            =    -633.8015719154 Ry
     energy   new            =    -633.8065974030 Ry

     CASE: energy  _new < energy  _old

     new trust radius        =       0.0680150556 bohr
     new conv_thr            =       0.0000000010 Ry


ATOMIC_POSITIONS (crystal)
O        0.333333333  -0.333333333   0.002206296    0   0   1
Zn       0.333333333  -0.333333333   0.091754062    0   0   1
O        0.666666667   0.333333333   0.125000000    0   0   0
Zn       0.666666667   0.333333333   0.220000000    0   0   0
O        0.333333333  -0.333333333   0.250000000    0   0   0
Zn       0.333333333  -0.333333333   0.345000000    0   0   0
O        0.666666667   0.333333333   0.375079944    0   0   1
Zn       0.666666667   0.333333333   0.470183073    0   0   1



     Writing output data file ZnO.save/
     NEW-OLD atomic charge density approx. for the potential

     negative rho (up, down):  1.379E-03 0.000E+00

     total cpu time spent up to now is      323.1 secs

     Self-consistent Calculation

     iteration #  1     ecut=    60.00 Ry     beta= 0.75
     Davidson diagonalization with overlap
     ethr =  1.00E-06,  avg # of iterations =  4.6

     negative rho (up, down):  1.334E-03 0.000E+00

     total cpu time spent up to now is      335.1 secs

     total energy              =    -633.79914256 Ry
     Harris-Foulkes estimate   =    -633.81061315 Ry
     estimated scf accuracy    <       0.01280725 Ry

     iteration #  2     ecut=    60.00 Ry     beta= 0.75
     Davidson diagonalization with overlap
     ethr =  1.78E-05,  avg # of iterations =  5.1

     negative rho (up, down):  1.301E-03 0.000E+00

     total cpu time spent up to now is      344.6 secs

     total energy              =    -633.58661425 Ry
     Harris-Foulkes estimate   =    -634.07631874 Ry
     estimated scf accuracy    <      10.02639941 Ry

     iteration #  3     ecut=    60.00 Ry     beta= 0.75
     Davidson diagonalization with overlap
     ethr =  1.78E-05,  avg # of iterations =  5.0

     negative rho (up, down):  1.346E-03 0.000E+00

     total cpu time spent up to now is      354.1 secs

     total energy              =    -633.80909594 Ry
     Harris-Foulkes estimate   =    -633.81135415 Ry
     estimated scf accuracy    <       0.00889144 Ry

     iteration #  4     ecut=    60.00 Ry     beta= 0.75
     Davidson diagonalization with overlap
     ethr =  1.23E-05,  avg # of iterations =  3.8

     negative rho (up, down):  1.336E-03 0.000E+00

     total cpu time spent up to now is      361.7 secs

     total energy              =    -633.80998936 Ry
     Harris-Foulkes estimate   =    -633.81059636 Ry
     estimated scf accuracy    <       0.00577923 Ry

     iteration #  5     ecut=    60.00 Ry     beta= 0.75
     Davidson diagonalization with overlap
     ethr =  8.03E-06,  avg # of iterations =  2.8

     negative rho (up, down):  1.341E-03 0.000E+00

     total cpu time spent up to now is      369.0 secs

     total energy              =    -633.81028561 Ry
     Harris-Foulkes estimate   =    -633.81032955 Ry
     estimated scf accuracy    <       0.00022531 Ry

     iteration #  6     ecut=    60.00 Ry     beta= 0.75
     Davidson diagonalization with overlap
     ethr =  3.13E-07,  avg # of iterations =  2.4

     negative rho (up, down):  1.344E-03 0.000E+00

     total cpu time spent up to now is      376.6 secs

     total energy              =    -633.81030968 Ry
     Harris-Foulkes estimate   =    -633.81031846 Ry
     estimated scf accuracy    <       0.00002974 Ry

     iteration #  7     ecut=    60.00 Ry     beta= 0.75
     Davidson diagonalization with overlap
     ethr =  4.13E-08,  avg # of iterations =  2.2

     negative rho (up, down):  1.345E-03 0.000E+00

     total cpu time spent up to now is      384.6 secs

     total energy              =    -633.81031455 Ry
     Harris-Foulkes estimate   =    -633.81031627 Ry
     estimated scf accuracy    <       0.00002181 Ry

     iteration #  8     ecut=    60.00 Ry     beta= 0.75
     Davidson diagonalization with overlap
     ethr =  3.03E-08,  avg # of iterations =  1.7

     negative rho (up, down):  1.345E-03 0.000E+00

     total cpu time spent up to now is      391.6 secs

     total energy              =    -633.81031516 Ry
     Harris-Foulkes estimate   =    -633.81031542 Ry
     estimated scf accuracy    <       0.00000258 Ry

     iteration #  9     ecut=    60.00 Ry     beta= 0.75
     Davidson diagonalization with overlap
     ethr =  3.59E-09,  avg # of iterations =  1.7

     negative rho (up, down):  1.345E-03 0.000E+00

     total cpu time spent up to now is      398.6 secs

     total energy              =    -633.81031527 Ry
     Harris-Foulkes estimate   =    -633.81031533 Ry
     estimated scf accuracy    <       0.00000038 Ry

     iteration # 10     ecut=    60.00 Ry     beta= 0.75
     Davidson diagonalization with overlap
     ethr =  5.26E-10,  avg # of iterations =  2.2

     negative rho (up, down):  1.345E-03 0.000E+00

     total cpu time spent up to now is      406.1 secs

          k = 0.0000 0.0000 0.0000     band energies (ev):

   -18.5341 -17.9818 -17.3591 -15.5608  -6.8146  -6.5024  -6.5024  -6.3226
    -6.2718  -6.2718  -6.0589  -5.9867  -5.9867  -5.9410  -5.9410  -5.6676
    -5.4533  -5.4533  -5.2516  -5.2516  -4.7559  -4.7559  -4.5378  -4.5378
    -4.4639  -3.7855  -2.6510  -1.5676  -1.4734  -1.4734  -0.9368  -0.9368
    -0.4938  -0.4938  -0.3157   0.5191   0.5191   1.1325   2.5754   3.9619

          k = 0.0000 0.0000 0.0517     band energies (ev):

   -18.5341 -17.9818 -17.3591 -15.5608  -6.8146  -6.5024  -6.5024  -6.3226
    -6.2718  -6.2718  -6.0589  -5.9867  -5.9867  -5.9410  -5.9410  -5.6676
    -5.4533  -5.4533  -5.2516  -5.2516  -4.7559  -4.7559  -4.5378  -4.5378
    -4.4639  -3.7855  -2.6509  -1.5676  -1.4734  -1.4734  -0.9368  -0.9368
    -0.4938  -0.4938  -0.3157   0.5191   0.5191   1.1324   2.5755   3.9611

          k = 0.0000 0.2887 0.0000     band energies (ev):

   -18.3044 -17.7810 -17.1737 -15.4552  -6.7759  -6.6218  -6.3860  -6.3549
    -6.1809  -6.1589  -6.0346  -5.9790  -5.9245  -5.7638  -5.7010  -5.5489
    -5.3539  -5.3083  -5.2156  -5.1173  -4.7339  -4.7148  -4.5901  -4.5216
    -4.2897  -3.6165  -3.1126  -2.6600  -2.1950  -2.0451  -1.5868  -1.4546
    -1.1704  -0.9171  -0.2256  -0.1442   0.4234   2.9470   4.0456   5.1526

          k = 0.0000 0.2887 0.0517     band energies (ev):

   -18.3044 -17.7810 -17.1737 -15.4552  -6.7759  -6.6218  -6.3860  -6.3549
    -6.1809  -6.1589  -6.0346  -5.9790  -5.9245  -5.7638  -5.7010  -5.5489
    -5.3539  -5.3083  -5.2156  -5.1173  -4.7339  -4.7148  -4.5901  -4.5216
    -4.2897  -3.6165  -3.1126  -2.6600  -2.1950  -2.0451  -1.5868  -1.4546
    -1.1704  -0.9171  -0.2256  -0.1442   0.4234   2.9470   4.0458   5.1518

          k = 0.0000-0.5774 0.0000     band energies (ev):

   -18.0615 -17.5713 -16.9789 -15.3465  -6.8537  -6.5427  -6.4345  -6.3212
    -6.2212  -6.0428  -5.9095  -5.8412  -5.8412  -5.6058  -5.5473  -5.2650
    -5.2016  -5.1269  -5.0813  -4.8676  -4.6730  -4.6673  -4.6075  -4.4682
    -4.4255  -4.2402  -3.7832  -3.3394  -2.6685  -2.4195  -2.0057  -1.7682
    -1.3683  -0.6464  -0.3867   0.3256   0.8655   1.0746   5.1119   5.4310

          k = 0.0000-0.5774 0.0517     band energies (ev):

   -18.0615 -17.5713 -16.9789 -15.3465  -6.8537  -6.5427  -6.4345  -6.3212
    -6.2212  -6.0428  -5.9095  -5.8412  -5.8412  -5.6058  -5.5473  -5.2650
    -5.2016  -5.1269  -5.0813  -4.8676  -4.6730  -4.6673  -4.6075  -4.4682
    -4.4255  -4.2402  -3.7832  -3.3394  -2.6685  -2.4195  -2.0057  -1.7682
    -1.3683  -0.6464  -0.3867   0.3256   0.8655   1.0746   5.1119   5.4310

          k = 0.2500 0.4330 0.0000     band energies (ev):

   -18.0648 -17.5735 -16.9806 -15.3466  -6.6546  -6.5919  -6.4120  -6.2846
    -6.1624  -6.0352  -5.9786  -5.8392  -5.7921  -5.6282  -5.4729  -5.4145
    -5.2264  -5.1370  -5.0774  -4.9103  -4.6659  -4.6645  -4.5250  -4.4380
    -4.3102  -3.8992  -3.5623  -3.4284  -3.1984  -2.6655  -2.3891  -1.9113
    -1.6219  -0.4052  -0.3595   0.0536   0.0866   3.7082   4.6223   5.3062

          k = 0.2500 0.4330 0.0517     band energies (ev):

   -18.0648 -17.5735 -16.9806 -15.3466  -6.6546  -6.5919  -6.4120  -6.2846
    -6.1624  -6.0352  -5.9786  -5.8392  -5.7921  -5.6282  -5.4729  -5.4145
    -5.2264  -5.1370  -5.0774  -4.9103  -4.6659  -4.6645  -4.5250  -4.4380
    -4.3102  -3.8992  -3.5623  -3.4284  -3.1984  -2.6655  -2.3891  -1.9113
    -1.6219  -0.4052  -0.3595   0.0536   0.0866   3.7082   4.6223   5.3062

          k = 0.0000-0.2887 0.0517     band energies (ev):

   -18.3044 -17.7810 -17.1737 -15.4552  -6.7759  -6.6218  -6.3860  -6.3549
    -6.1809  -6.1589  -6.0346  -5.9790  -5.9245  -5.7638  -5.7010  -5.5489
    -5.3539  -5.3083  -5.2156  -5.1173  -4.7339  -4.7148  -4.5901  -4.5216
    -4.2897  -3.6165  -3.1126  -2.6600  -2.1950  -2.0451  -1.5868  -1.4546
    -1.1704  -0.9171  -0.2256  -0.1442   0.4234   2.9470   4.0458   5.1518

     the Fermi energy is     0.3045 ev

!    total energy              =    -633.81031530 Ry
     Harris-Foulkes estimate   =    -633.81031531 Ry
     estimated scf accuracy    <       0.00000005 Ry

     The total energy is the sum of the following terms:

     one-electron contribution =   -3465.29369552 Ry
     hartree contribution      =    1783.80018488 Ry
     xc contribution           =    -101.81851522 Ry
     ewald contribution        =    1149.56780104 Ry
     scf correction            =       0.00120071 Ry
     smearing contrib. (-TS)   =      -0.06729119 Ry

     iteration # 11     ecut=    60.00 Ry     beta= 0.75
     Davidson diagonalization with overlap
     ethr =  7.51E-11,  avg # of iterations =  3.0

     negative rho (up, down):  1.345E-03 0.000E+00

     total cpu time spent up to now is      414.4 secs

     total energy              =    -633.81031531 Ry
     Harris-Foulkes estimate   =    -633.81031531 Ry
     estimated scf accuracy    <          3.5E-09 Ry

     iteration # 12     ecut=    60.00 Ry     beta= 0.75
     Davidson diagonalization with overlap
     ethr =  4.83E-12,  avg # of iterations =  2.2

     negative rho (up, down):  1.345E-03 0.000E+00

     total cpu time spent up to now is      422.9 secs

     End of self-consistent calculation

          k = 0.0000 0.0000 0.0000 ( 10533 PWs)   bands (ev):

   -18.5342 -17.9815 -17.3591 -15.5607  -6.8145  -6.5024  -6.5024  -6.3225
    -6.2716  -6.2716  -6.0587  -5.9866  -5.9866  -5.9408  -5.9408  -5.6675
    -5.4532  -5.4532  -5.2516  -5.2516  -4.7556  -4.7556  -4.5377  -4.5377
    -4.4638  -3.7854  -2.6509  -1.5676  -1.4735  -1.4735  -0.9366  -0.9366
    -0.4938  -0.4938  -0.3157   0.5191   0.5191   1.1325   2.5755   3.9620

          k = 0.0000 0.0000 0.0517 ( 10526 PWs)   bands (ev):

   -18.5342 -17.9815 -17.3591 -15.5607  -6.8145  -6.5024  -6.5024  -6.3225
    -6.2716  -6.2716  -6.0587  -5.9866  -5.9866  -5.9408  -5.9408  -5.6674
    -5.4532  -5.4532  -5.2516  -5.2516  -4.7556  -4.7556  -4.5377  -4.5377
    -4.4638  -3.7854  -2.6509  -1.5676  -1.4735  -1.4735  -0.9366  -0.9366
    -0.4938  -0.4938  -0.3156   0.5191   0.5191   1.1325   2.5756   3.9612

          k = 0.0000 0.2887 0.0000 ( 10451 PWs)   bands (ev):

   -18.3046 -17.7807 -17.1738 -15.4552  -6.7759  -6.6218  -6.3860  -6.3547
    -6.1807  -6.1587  -6.0344  -5.9789  -5.9244  -5.7635  -5.7009  -5.5487
    -5.3538  -5.3082  -5.2156  -5.1172  -4.7337  -4.7146  -4.5899  -4.5215
    -4.2896  -3.6165  -3.1126  -2.6598  -2.1949  -2.0452  -1.5868  -1.4545
    -1.1705  -0.9171  -0.2255  -0.1442   0.4235   2.9471   4.0457   5.1526

          k = 0.0000 0.2887 0.0517 ( 10482 PWs)   bands (ev):

   -18.3046 -17.7807 -17.1738 -15.4552  -6.7759  -6.6218  -6.3860  -6.3547
    -6.1807  -6.1587  -6.0344  -5.9789  -5.9244  -5.7635  -5.7009  -5.5487
    -5.3538  -5.3082  -5.2156  -5.1172  -4.7337  -4.7146  -4.5899  -4.5215
    -4.2896  -3.6165  -3.1126  -2.6598  -2.1949  -2.0452  -1.5868  -1.4545
    -1.1705  -0.9171  -0.2255  -0.1442   0.4235   2.9471   4.0458   5.1518

          k = 0.0000-0.5774 0.0000 ( 10442 PWs)   bands (ev):

   -18.0617 -17.5710 -16.9790 -15.3464  -6.8537  -6.5426  -6.4344  -6.3211
    -6.2210  -6.0426  -5.9094  -5.8411  -5.8411  -5.6058  -5.5472  -5.2648
    -5.2015  -5.1270  -5.0812  -4.8675  -4.6728  -4.6672  -4.6073  -4.4681
    -4.4254  -4.2401  -3.7831  -3.3394  -2.6686  -2.4194  -2.0056  -1.7680
    -1.3682  -0.6463  -0.3867   0.3256   0.8654   1.0745   5.1121   5.4311

          k = 0.0000-0.5774 0.0517 ( 10468 PWs)   bands (ev):

   -18.0617 -17.5710 -16.9790 -15.3464  -6.8537  -6.5426  -6.4344  -6.3211
    -6.2210  -6.0426  -5.9094  -5.8411  -5.8411  -5.6058  -5.5472  -5.2648
    -5.2015  -5.1270  -5.0812  -4.8675  -4.6728  -4.6672  -4.6073  -4.4681
    -4.4254  -4.2401  -3.7831  -3.3394  -2.6686  -2.4194  -2.0056  -1.7680
    -1.3682  -0.6463  -0.3867   0.3256   0.8654   1.0745   5.1121   5.4311

          k = 0.2500 0.4330 0.0000 ( 10444 PWs)   bands (ev):

   -18.0650 -17.5732 -16.9807 -15.3465  -6.6546  -6.5918  -6.4120  -6.2844
    -6.1622  -6.0350  -5.9785  -5.8391  -5.7920  -5.6280  -5.4728  -5.4144
    -5.2264  -5.1369  -5.0774  -4.9102  -4.6657  -4.6644  -4.5249  -4.4379
    -4.3101  -3.8991  -3.5623  -3.4283  -3.1984  -2.6654  -2.3890  -1.9111
    -1.6219  -0.4052  -0.3595   0.0537   0.0865   3.7082   4.6223   5.3063

          k = 0.2500 0.4330 0.0517 ( 10429 PWs)   bands (ev):

   -18.0650 -17.5732 -16.9807 -15.3465  -6.6546  -6.5918  -6.4120  -6.2844
    -6.1622  -6.0350  -5.9785  -5.8391  -5.7920  -5.6280  -5.4728  -5.4144
    -5.2264  -5.1369  -5.0774  -4.9102  -4.6657  -4.6644  -4.5249  -4.4379
    -4.3101  -3.8991  -3.5623  -3.4283  -3.1984  -2.6654  -2.3890  -1.9111
    -1.6218  -0.4051  -0.3595   0.0537   0.0865   3.7082   4.6223   5.3063

          k = 0.0000-0.2887 0.0517 ( 10482 PWs)   bands (ev):

   -18.3046 -17.7807 -17.1738 -15.4552  -6.7759  -6.6218  -6.3860  -6.3547
    -6.1807  -6.1587  -6.0344  -5.9789  -5.9244  -5.7635  -5.7009  -5.5487
    -5.3538  -5.3082  -5.2156  -5.1172  -4.7337  -4.7146  -4.5899  -4.5215
    -4.2896  -3.6165  -3.1126  -2.6598  -2.1949  -2.0452  -1.5868  -1.4545
    -1.1705  -0.9171  -0.2255  -0.1442   0.4235   2.9471   4.0458   5.1519

     the Fermi energy is     0.3046 ev

!    total energy              =    -633.81031531 Ry
     Harris-Foulkes estimate   =    -633.81031531 Ry
     estimated scf accuracy    <          7.5E-10 Ry

     The total energy is the sum of the following terms:

     one-electron contribution =   -3465.29233469 Ry
     hartree contribution      =    1783.80002483 Ry
     xc contribution           =    -101.81851347 Ry
     ewald contribution        =    1149.56780104 Ry
     smearing contrib. (-TS)   =      -0.06729302 Ry

     convergence has been achieved in  12 iterations

     Forces acting on atoms (cartesian axes, Ry/au):

     atom    1 type  2   force =     0.00000000    0.00000000    0.01551479
     atom    2 type  1   force =     0.00000000    0.00000000   -0.02699506
     atom    3 type  2   force =     0.00000000   -0.00000000    0.02062723
     atom    4 type  1   force =     0.00000000   -0.00000000   -0.01970423
     atom    5 type  2   force =     0.00000000    0.00000000    0.01745995
     atom    6 type  1   force =     0.00000000    0.00000000   -0.01137082
     atom    7 type  2   force =     0.00000000    0.00000000    0.00235496
     atom    8 type  1   force =     0.00000000    0.00000000    0.00211319

     Total force =     0.031296     Total SCF correction =     0.000052


     Computing stress (Cartesian axis) and pressure

          total   stress  (Ry/bohr**3)                   (kbar)     P=  -10.91
  -0.00007834   0.00000000   0.00000000        -11.52      0.00      0.00
   0.00000000  -0.00007834  -0.00000000          0.00    -11.52     -0.00
   0.00000000  -0.00000000  -0.00006584          0.00     -0.00     -9.69


     number of scf cycles    =   3
     number of bfgs steps    =   2

     energy   old            =    -633.8065974030 Ry
     energy   new            =    -633.8103153111 Ry

     CASE: energy  _new < energy  _old

     new trust radius        =       0.0823121408 bohr
     new conv_thr            =       0.0000000010 Ry


ATOMIC_POSITIONS (crystal)
O        0.333333333  -0.333333333   0.003447672    0   0   1
Zn       0.333333333  -0.333333333   0.089696408    0   0   1
O        0.666666667   0.333333333   0.125000000    0   0   0
Zn       0.666666667   0.333333333   0.220000000    0   0   0
O        0.333333333  -0.333333333   0.250000000    0   0   0
Zn       0.333333333  -0.333333333   0.345000000    0   0   0
O        0.666666667   0.333333333   0.375229188    0   0   1
Zn       0.666666667   0.333333333   0.470330992    0   0   1



     Writing output data file ZnO.save/
     NEW-OLD atomic charge density approx. for the potential

     negative rho (up, down):  1.319E-03 0.000E+00

     total cpu time spent up to now is      437.4 secs

     Self-consistent Calculation

     iteration #  1     ecut=    60.00 Ry     beta= 0.75
     Davidson diagonalization with overlap
     ethr =  1.00E-06,  avg # of iterations =  5.0

     negative rho (up, down):  1.235E-03 0.000E+00

     total cpu time spent up to now is      449.6 secs

     total energy              =    -633.79492773 Ry
     Harris-Foulkes estimate   =    -633.81182908 Ry
     estimated scf accuracy    <       0.01893244 Ry

     iteration #  2     ecut=    60.00 Ry     beta= 0.75
     Davidson diagonalization with overlap
     ethr =  2.63E-05,  avg # of iterations =  5.1

     negative rho (up, down):  1.198E-03 0.000E+00

     total cpu time spent up to now is      459.0 secs

     total energy              =    -633.40780546 Ry
     Harris-Foulkes estimate   =    -634.18388913 Ry
     estimated scf accuracy    <      17.53736912 Ry

     iteration #  3     ecut=    60.00 Ry     beta= 0.75
     Davidson diagonalization with overlap
     ethr =  2.63E-05,  avg # of iterations =  5.0

     negative rho (up, down):  1.265E-03 0.000E+00

     total cpu time spent up to now is      468.5 secs

     total energy              =    -633.80742452 Ry
     Harris-Foulkes estimate   =    -633.81531635 Ry
     estimated scf accuracy    <       0.04199775 Ry

     iteration #  4     ecut=    60.00 Ry     beta= 0.75
     Davidson diagonalization with overlap
     ethr =  2.63E-05,  avg # of iterations =  3.8

     negative rho (up, down):  1.249E-03 0.000E+00

     total cpu time spent up to now is      476.1 secs

     total energy              =    -633.81070977 Ry
     Harris-Foulkes estimate   =    -633.81179726 Ry
     estimated scf accuracy    <       0.00773010 Ry

     iteration #  5     ecut=    60.00 Ry     beta= 0.75
     Davidson diagonalization with overlap
     ethr =  1.07E-05,  avg # of iterations =  3.0

     negative rho (up, down):  1.252E-03 0.000E+00

     total cpu time spent up to now is      483.4 secs

     total energy              =    -633.81125806 Ry
     Harris-Foulkes estimate   =    -633.81131413 Ry
     estimated scf accuracy    <       0.00020236 Ry

     iteration #  6     ecut=    60.00 Ry     beta= 0.75
     Davidson diagonalization with overlap
     ethr =  2.81E-07,  avg # of iterations =  2.2

     negative rho (up, down):  1.255E-03 0.000E+00

     total cpu time spent up to now is      491.5 secs

     total energy              =    -633.81129423 Ry
     Harris-Foulkes estimate   =    -633.81130953 Ry
     estimated scf accuracy    <       0.00006741 Ry

     iteration #  7     ecut=    60.00 Ry     beta= 0.75
     Davidson diagonalization with overlap
     ethr =  9.36E-08,  avg # of iterations =  2.2

     negative rho (up, down):  1.256E-03 0.000E+00

     total cpu time spent up to now is      499.1 secs

     total energy              =    -633.81130197 Ry
     Harris-Foulkes estimate   =    -633.81130507 Ry
     estimated scf accuracy    <       0.00001707 Ry

     iteration #  8     ecut=    60.00 Ry     beta= 0.75
     Davidson diagonalization with overlap
     ethr =  2.37E-08,  avg # of iterations =  2.2

     negative rho (up, down):  1.256E-03 0.000E+00

     total cpu time spent up to now is      506.4 secs

     total energy              =    -633.81130329 Ry
     Harris-Foulkes estimate   =    -633.81130363 Ry
     estimated scf accuracy    <       0.00000143 Ry

     iteration #  9     ecut=    60.00 Ry     beta= 0.75
     Davidson diagonalization with overlap
     ethr =  1.99E-09,  avg # of iterations =  2.2

     negative rho (up, down):  1.256E-03 0.000E+00

     total cpu time spent up to now is      514.5 secs

     total energy              =    -633.81130346 Ry
     Harris-Foulkes estimate   =    -633.81130361 Ry
     estimated scf accuracy    <       0.00000060 Ry

     iteration # 10     ecut=    60.00 Ry     beta= 0.75
     Davidson diagonalization with overlap
     ethr =  8.38E-10,  avg # of iterations =  2.0

     negative rho (up, down):  1.256E-03 0.000E+00

     total cpu time spent up to now is      522.1 secs

          k = 0.0000 0.0000 0.0000     band energies (ev):

   -18.5273 -17.9585 -17.2783 -15.7299  -6.8182  -6.4991  -6.4991  -6.3205
    -6.2832  -6.2832  -6.0462  -5.9913  -5.9913  -5.9209  -5.9209  -5.6878
    -5.4334  -5.4334  -5.2466  -5.2466  -4.7411  -4.7411  -4.6430  -4.6430
    -4.5098  -3.8304  -2.6628  -1.5774  -1.4722  -1.4722  -0.9305  -0.9305
    -0.5155  -0.5155  -0.3067   0.4943   0.4943   1.1537   2.6172   4.0020

          k = 0.0000 0.0000 0.0517     band energies (ev):

   -18.5273 -17.9585 -17.2783 -15.7299  -6.8182  -6.4991  -6.4991  -6.3205
    -6.2832  -6.2832  -6.0462  -5.9913  -5.9913  -5.9209  -5.9209  -5.6878
    -5.4334  -5.4334  -5.2466  -5.2466  -4.7411  -4.7411  -4.6430  -4.6430
    -4.5098  -3.8304  -2.6628  -1.5774  -1.4722  -1.4722  -0.9305  -0.9305
    -0.5155  -0.5155  -0.3067   0.4943   0.4943   1.1537   2.6174   4.0011

          k = 0.0000 0.2887 0.0000     band energies (ev):

   -18.2986 -17.7593 -17.0901 -15.6282  -6.7752  -6.6224  -6.3869  -6.3649
    -6.1703  -6.1661  -6.0308  -5.9705  -5.9274  -5.7443  -5.6849  -5.5439
    -5.3544  -5.3062  -5.2090  -5.1193  -4.7586  -4.7210  -4.6626  -4.6195
    -4.3325  -3.6287  -3.1264  -2.6633  -2.1960  -2.0404  -1.5916  -1.4466
    -1.1732  -0.9208  -0.2350  -0.1598   0.4073   2.9602   4.0836   5.1778

          k = 0.0000 0.2887 0.0517     band energies (ev):

   -18.2986 -17.7593 -17.0901 -15.6282  -6.7752  -6.6224  -6.3869  -6.3649
    -6.1703  -6.1661  -6.0308  -5.9705  -5.9274  -5.7443  -5.6849  -5.5439
    -5.3544  -5.3062  -5.2090  -5.1193  -4.7586  -4.7210  -4.6626  -4.6195
    -4.3325  -3.6287  -3.1264  -2.6633  -2.1960  -2.0404  -1.5916  -1.4466
    -1.1732  -0.9208  -0.2350  -0.1598   0.4073   2.9602   4.0837   5.1770

          k = 0.0000-0.5774 0.0000     band energies (ev):

   -18.0569 -17.5513 -16.8916 -15.5238  -6.8528  -6.5444  -6.4449  -6.3260
    -6.2068  -6.0543  -5.9067  -5.8406  -5.8226  -5.5851  -5.5304  -5.2495
    -5.2135  -5.1260  -5.0931  -4.8842  -4.7499  -4.6624  -4.6440  -4.5337
    -4.5051  -4.2607  -3.7385  -3.3440  -2.6603  -2.4214  -1.9924  -1.7750
    -1.3518  -0.6481  -0.4131   0.3164   0.8557   1.0657   5.1249   5.4469

          k = 0.0000-0.5774 0.0517     band energies (ev):

   -18.0569 -17.5513 -16.8916 -15.5238  -6.8528  -6.5444  -6.4449  -6.3260
    -6.2068  -6.0543  -5.9067  -5.8406  -5.8226  -5.5851  -5.5304  -5.2495
    -5.2135  -5.1260  -5.0931  -4.8842  -4.7499  -4.6624  -4.6440  -4.5337
    -4.5051  -4.2607  -3.7385  -3.3440  -2.6603  -2.4214  -1.9924  -1.7750
    -1.3518  -0.6482  -0.4131   0.3164   0.8557   1.0657   5.1249   5.4469

          k = 0.2500 0.4330 0.0000     band energies (ev):

   -18.0601 -17.5535 -16.8935 -15.5238  -6.6566  -6.5943  -6.4171  -6.2950
    -6.1729  -6.0263  -5.9639  -5.8374  -5.7839  -5.6158  -5.4628  -5.4046
    -5.2314  -5.1344  -5.0757  -4.9337  -4.7570  -4.6885  -4.5810  -4.4655
    -4.3479  -3.8963  -3.5659  -3.4282  -3.1830  -2.6511  -2.3842  -1.8989
    -1.6224  -0.4175  -0.3727   0.0438   0.0778   3.6990   4.6143   5.3154

          k = 0.2500 0.4330 0.0517     band energies (ev):

   -18.0601 -17.5535 -16.8935 -15.5238  -6.6566  -6.5943  -6.4171  -6.2950
    -6.1729  -6.0263  -5.9639  -5.8374  -5.7839  -5.6158  -5.4628  -5.4046
    -5.2314  -5.1344  -5.0757  -4.9337  -4.7570  -4.6885  -4.5810  -4.4655
    -4.3479  -3.8963  -3.5659  -3.4282  -3.1830  -2.6511  -2.3842  -1.8989
    -1.6224  -0.4175  -0.3727   0.0438   0.0778   3.6990   4.6143   5.3155

          k = 0.0000-0.2887 0.0517     band energies (ev):

   -18.2986 -17.7593 -17.0901 -15.6282  -6.7752  -6.6224  -6.3869  -6.3649
    -6.1703  -6.1661  -6.0308  -5.9705  -5.9274  -5.7443  -5.6849  -5.5439
    -5.3544  -5.3062  -5.2090  -5.1193  -4.7586  -4.7210  -4.6626  -4.6195
    -4.3325  -3.6287  -3.1264  -2.6633  -2.1960  -2.0404  -1.5916  -1.4466
    -1.1732  -0.9208  -0.2350  -0.1598   0.4073   2.9602   4.0837   5.1770

     the Fermi energy is     0.2923 ev

!    total energy              =    -633.81130353 Ry
     Harris-Foulkes estimate   =    -633.81130355 Ry
     estimated scf accuracy    <       0.00000006 Ry

     The total energy is the sum of the following terms:

     one-electron contribution =   -3453.93765336 Ry
     hartree contribution      =    1778.10504930 Ry
     xc contribution           =    -101.82412461 Ry
     ewald contribution        =    1143.91321761 Ry
     scf correction            =      -0.00047838 Ry
     smearing contrib. (-TS)   =      -0.06731409 Ry

     iteration # 11     ecut=    60.00 Ry     beta= 0.75
     Davidson diagonalization with overlap
     ethr =  8.84E-11,  avg # of iterations =  2.0

     negative rho (up, down):  1.256E-03 0.000E+00

     total cpu time spent up to now is      530.2 secs

     total energy              =    -633.81130354 Ry
     Harris-Foulkes estimate   =    -633.81130354 Ry
     estimated scf accuracy    <       0.00000002 Ry

     iteration # 12     ecut=    60.00 Ry     beta= 0.75
     Davidson diagonalization with overlap
     ethr =  2.35E-11,  avg # of iterations =  2.0

     negative rho (up, down):  1.256E-03 0.000E+00

     total cpu time spent up to now is      537.8 secs

     total energy              =    -633.81130354 Ry
     Harris-Foulkes estimate   =    -633.81130354 Ry
     estimated scf accuracy    <          7.1E-09 Ry

     iteration # 13     ecut=    60.00 Ry     beta= 0.75
     Davidson diagonalization with overlap
     ethr =  9.88E-12,  avg # of iterations =  1.0

     negative rho (up, down):  1.256E-03 0.000E+00

     total cpu time spent up to now is      544.7 secs

     total energy              =    -633.81130354 Ry
     Harris-Foulkes estimate   =    -633.81130354 Ry
     estimated scf accuracy    <          9.7E-09 Ry

     iteration # 14     ecut=    60.00 Ry     beta= 0.75
     Davidson diagonalization with overlap
     ethr =  9.88E-12,  avg # of iterations =  1.0

     negative rho (up, down):  1.256E-03 0.000E+00

     total cpu time spent up to now is      551.6 secs

     End of self-consistent calculation

          k = 0.0000 0.0000 0.0000 ( 10533 PWs)   bands (ev):

   -18.5277 -17.9582 -17.2785 -15.7300  -6.8183  -6.4991  -6.4991  -6.3204
    -6.2832  -6.2832  -6.0460  -5.9914  -5.9914  -5.9207  -5.9207  -5.6879
    -5.4334  -5.4334  -5.2465  -5.2465  -4.7409  -4.7409  -4.6430  -4.6430
    -4.5097  -3.8304  -2.6628  -1.5774  -1.4724  -1.4724  -0.9304  -0.9304
    -0.5156  -0.5156  -0.3068   0.4943   0.4943   1.1537   2.6172   4.0020

          k = 0.0000 0.0000 0.0517 ( 10526 PWs)   bands (ev):

   -18.5277 -17.9582 -17.2785 -15.7300  -6.8183  -6.4991  -6.4991  -6.3204
    -6.2832  -6.2832  -6.0460  -5.9914  -5.9914  -5.9207  -5.9207  -5.6879
    -5.4334  -5.4334  -5.2465  -5.2465  -4.7409  -4.7409  -4.6430  -4.6430
    -4.5097  -3.8304  -2.6628  -1.5774  -1.4724  -1.4724  -0.9304  -0.9304
    -0.5156  -0.5156  -0.3068   0.4943   0.4943   1.1537   2.6174   4.0012

          k = 0.0000 0.2887 0.0000 ( 10451 PWs)   bands (ev):

   -18.2990 -17.7589 -17.0903 -15.6282  -6.7753  -6.6225  -6.3870  -6.3650
    -6.1704  -6.1660  -6.0308  -5.9704  -5.9274  -5.7441  -5.6849  -5.5439
    -5.3544  -5.3062  -5.2089  -5.1193  -4.7585  -4.7208  -4.6625  -4.6195
    -4.3325  -3.6287  -3.1264  -2.6633  -2.1959  -2.0406  -1.5917  -1.4465
    -1.1733  -0.9208  -0.2350  -0.1598   0.4073   2.9603   4.0836   5.1778

          k = 0.0000 0.2887 0.0517 ( 10482 PWs)   bands (ev):

   -18.2990 -17.7589 -17.0904 -15.6282  -6.7753  -6.6225  -6.3870  -6.3650
    -6.1704  -6.1660  -6.0308  -5.9704  -5.9274  -5.7441  -5.6849  -5.5439
    -5.3544  -5.3062  -5.2089  -5.1193  -4.7585  -4.7208  -4.6625  -4.6195
    -4.3325  -3.6287  -3.1264  -2.6633  -2.1959  -2.0406  -1.5917  -1.4465
    -1.1733  -0.9208  -0.2350  -0.1598   0.4073   2.9602   4.0837   5.1769

          k = 0.0000-0.5774 0.0000 ( 10442 PWs)   bands (ev):

   -18.0573 -17.5509 -16.8919 -15.5239  -6.8529  -6.5445  -6.4450  -6.3261
    -6.2067  -6.0544  -5.9067  -5.8405  -5.8225  -5.5851  -5.5302  -5.2494
    -5.2135  -5.1260  -5.0931  -4.8842  -4.7499  -4.6623  -4.6439  -4.5336
    -4.5051  -4.2606  -3.7385  -3.3442  -2.6604  -2.4214  -1.9923  -1.7749
    -1.3518  -0.6482  -0.4131   0.3163   0.8556   1.0656   5.1250   5.4469

          k = 0.0000-0.5774 0.0517 ( 10468 PWs)   bands (ev):

   -18.0573 -17.5509 -16.8919 -15.5239  -6.8529  -6.5445  -6.4450  -6.3261
    -6.2067  -6.0544  -5.9067  -5.8405  -5.8225  -5.5851  -5.5302  -5.2494
    -5.2135  -5.1260  -5.0931  -4.8842  -4.7499  -4.6623  -4.6439  -4.5336
    -4.5051  -4.2606  -3.7385  -3.3442  -2.6604  -2.4214  -1.9923  -1.7749
    -1.3518  -0.6482  -0.4131   0.3163   0.8556   1.0656   5.1250   5.4469

          k = 0.2500 0.4330 0.0000 ( 10444 PWs)   bands (ev):

   -18.0605 -17.5530 -16.8937 -15.5239  -6.6567  -6.5944  -6.4172  -6.2951
    -6.1730  -6.0262  -5.9638  -5.8374  -5.7838  -5.6157  -5.4627  -5.4045
    -5.2314  -5.1343  -5.0756  -4.9336  -4.7570  -4.6884  -4.5810  -4.4655
    -4.3479  -3.8962  -3.5660  -3.4282  -3.1831  -2.6511  -2.3842  -1.8988
    -1.6224  -0.4175  -0.3727   0.0437   0.0777   3.6989   4.6142   5.3155

          k = 0.2500 0.4330 0.0517 ( 10429 PWs)   bands (ev):

   -18.0605 -17.5530 -16.8937 -15.5239  -6.6567  -6.5944  -6.4172  -6.2951
    -6.1730  -6.0262  -5.9638  -5.8374  -5.7838  -5.6157  -5.4627  -5.4045
    -5.2314  -5.1343  -5.0756  -4.9336  -4.7570  -4.6884  -4.5810  -4.4655
    -4.3479  -3.8962  -3.5660  -3.4282  -3.1831  -2.6511  -2.3842  -1.8988
    -1.6224  -0.4175  -0.3727   0.0437   0.0777   3.6989   4.6142   5.3155

          k = 0.0000-0.2887 0.0517 ( 10482 PWs)   bands (ev):

   -18.2990 -17.7589 -17.0904 -15.6282  -6.7753  -6.6225  -6.3870  -6.3650
    -6.1704  -6.1660  -6.0308  -5.9704  -5.9274  -5.7441  -5.6849  -5.5439
    -5.3544  -5.3062  -5.2089  -5.1193  -4.7585  -4.7208  -4.6625  -4.6195
    -4.3325  -3.6287  -3.1264  -2.6633  -2.1959  -2.0406  -1.5917  -1.4465
    -1.1733  -0.9208  -0.2350  -0.1598   0.4073   2.9602   4.0837   5.1770

     the Fermi energy is     0.2923 ev

!    total energy              =    -633.81130354 Ry
     Harris-Foulkes estimate   =    -633.81130354 Ry
     estimated scf accuracy    <          4.1E-10 Ry

     The total energy is the sum of the following terms:

     one-electron contribution =   -3453.93833680 Ry
     hartree contribution      =    1778.10526342 Ry
     xc contribution           =    -101.82413316 Ry
     ewald contribution        =    1143.91321761 Ry
     smearing contrib. (-TS)   =      -0.06731460 Ry

     convergence has been achieved in  14 iterations

     Forces acting on atoms (cartesian axes, Ry/au):

     atom    1 type  2   force =     0.00000000   -0.00000000   -0.01439528
     atom    2 type  1   force =     0.00000000   -0.00000000    0.00786925
     atom    3 type  2   force =     0.00000000   -0.00000000    0.01750948
     atom    4 type  1   force =     0.00000000   -0.00000000   -0.02209110
     atom    5 type  2   force =     0.00000000    0.00000000    0.01859009
     atom    6 type  1   force =     0.00000000   -0.00000000   -0.01166606
     atom    7 type  2   force =     0.00000000    0.00000000    0.00254805
     atom    8 type  1   force =     0.00000000    0.00000000    0.00163557

     Total force =     0.016683     Total SCF correction =     0.000045


     Computing stress (Cartesian axis) and pressure

          total   stress  (Ry/bohr**3)                   (kbar)     P=   -8.85
  -0.00008997  -0.00000000   0.00000000        -13.24     -0.00      0.00
  -0.00000000  -0.00008997  -0.00000000         -0.00    -13.24     -0.00
   0.00000000  -0.00000000  -0.00000053          0.00     -0.00     -0.08


     number of scf cycles    =   4
     number of bfgs steps    =   3

     energy   old            =    -633.8103153111 Ry
     energy   new            =    -633.8113035383 Ry

     CASE: energy  _new < energy  _old

     new trust radius        =       0.0213859002 bohr
     new conv_thr            =       0.0000000010 Ry


ATOMIC_POSITIONS (crystal)
O        0.333333333  -0.333333333   0.002952917    0   0   1
Zn       0.333333333  -0.333333333   0.090231017    0   0   1
O        0.666666667   0.333333333   0.125000000    0   0   0
Zn       0.666666667   0.333333333   0.220000000    0   0   0
O        0.333333333  -0.333333333   0.250000000    0   0   0
Zn       0.333333333  -0.333333333   0.345000000    0   0   0
O        0.666666667   0.333333333   0.375246926    0   0   1
Zn       0.666666667   0.333333333   0.470331860    0   0   1



     Writing output data file ZnO.save/
     NEW-OLD atomic charge density approx. for the potential

     negative rho (up, down):  1.250E-03 0.000E+00

     total cpu time spent up to now is      566.0 secs

     Self-consistent Calculation

     iteration #  1     ecut=    60.00 Ry     beta= 0.75
     Davidson diagonalization with overlap
     ethr =  1.00E-06,  avg # of iterations =  4.0

     negative rho (up, down):  1.262E-03 0.000E+00

     total cpu time spent up to now is      576.7 secs

     total energy              =    -633.80930440 Ry
     Harris-Foulkes estimate   =    -633.81158787 Ry
     estimated scf accuracy    <       0.00254417 Ry

     iteration #  2     ecut=    60.00 Ry     beta= 0.75
     Davidson diagonalization with overlap
     ethr =  3.53E-06,  avg # of iterations =  5.0

     negative rho (up, down):  1.314E-03 0.000E+00

     total cpu time spent up to now is      586.1 secs

     total energy              =    -633.76306715 Ry
[...]
     estimated scf accuracy    <          4.8E-11 Ry

     iteration #  9     ecut=    60.00 Ry     beta= 0.75
     Davidson diagonalization with overlap
     ethr =  1.00E-13,  avg # of iterations =  2.2

     negative rho (up, down):  1.256E-03 0.000E+00

     total cpu time spent up to now is     2023.8 secs

     End of self-consistent calculation

          k = 0.0000 0.0000 0.0000 ( 10533 PWs)   bands (ev):

   -18.4802 -17.9568 -17.2188 -15.6713  -6.8077  -6.4629  -6.4629  -6.3100
    -6.2815  -6.2815  -6.0423  -5.9851  -5.9851  -5.9144  -5.9144  -5.6446
    -5.3687  -5.3687  -5.2428  -5.2428  -4.7288  -4.7288  -4.5930  -4.5930
    -4.4945  -3.8233  -2.6633  -1.5819  -1.4661  -1.4661  -0.9249  -0.9249
    -0.4866  -0.4866  -0.3251   0.4990   0.4990   1.1400   2.6117   3.9734

          k = 0.0000 0.0000 0.0517 ( 10526 PWs)   bands (ev):

   -18.4802 -17.9568 -17.2188 -15.6713  -6.8077  -6.4629  -6.4629  -6.3100
    -6.2815  -6.2815  -6.0423  -5.9851  -5.9851  -5.9144  -5.9144  -5.6446
    -5.3687  -5.3687  -5.2428  -5.2428  -4.7288  -4.7288  -4.5930  -4.5930
    -4.4945  -3.8233  -2.6633  -1.5819  -1.4661  -1.4661  -0.9249  -0.9249
    -0.4866  -0.4866  -0.3251   0.4990   0.4990   1.1400   2.6118   3.9726

          k = 0.0000 0.2887 0.0000 ( 10451 PWs)   bands (ev):

   -18.2512 -17.7606 -17.0308 -15.5676  -6.7501  -6.5995  -6.3621  -6.3620
    -6.1688  -6.1609  -6.0234  -5.9586  -5.9181  -5.7356  -5.6591  -5.5104
    -5.3074  -5.2514  -5.2008  -5.1074  -4.7190  -4.7086  -4.6336  -4.5701
    -4.3199  -3.6183  -3.1234  -2.6522  -2.1848  -2.0218  -1.5790  -1.4332
    -1.1658  -0.8825  -0.2528  -0.1603   0.4091   2.9414   4.0931   5.1384

          k = 0.0000 0.2887 0.0517 ( 10482 PWs)   bands (ev):

   -18.2512 -17.7606 -17.0308 -15.5676  -6.7501  -6.5995  -6.3621  -6.3620
    -6.1688  -6.1609  -6.0234  -5.9586  -5.9181  -5.7356  -5.6591  -5.5104
    -5.3074  -5.2514  -5.2008  -5.1074  -4.7190  -4.7086  -4.6336  -4.5701
    -4.3199  -3.6183  -3.1234  -2.6522  -2.1848  -2.0218  -1.5790  -1.4332
    -1.1658  -0.8825  -0.2528  -0.1603   0.4091   2.9414   4.0933   5.1375

          k = 0.0000-0.5774 0.0000 ( 10442 PWs)   bands (ev):

   -18.0090 -17.5560 -16.8325 -15.4610  -6.8209  -6.5306  -6.4420  -6.3109
    -6.2062  -6.0530  -5.8983  -5.8343  -5.7983  -5.5433  -5.5158  -5.2311
    -5.1820  -5.1233  -5.0668  -4.8514  -4.6994  -4.6516  -4.6140  -4.5093
    -4.4598  -4.2499  -3.6896  -3.3376  -2.6293  -2.4223  -1.9689  -1.7666
    -1.3032  -0.6499  -0.4251   0.3162   0.8586   1.0723   5.0997   5.4293

          k = 0.0000-0.5774 0.0517 ( 10468 PWs)   bands (ev):

   -18.0090 -17.5560 -16.8325 -15.4610  -6.8209  -6.5306  -6.4420  -6.3109
    -6.2062  -6.0530  -5.8983  -5.8343  -5.7983  -5.5433  -5.5158  -5.2311
    -5.1820  -5.1233  -5.0668  -4.8514  -4.6994  -4.6516  -4.6140  -4.5093
    -4.4598  -4.2499  -3.6896  -3.3376  -2.6293  -2.4223  -1.9689  -1.7666
    -1.3032  -0.6499  -0.4251   0.3162   0.8586   1.0723   5.0997   5.4293

          k = 0.2500 0.4330 0.0000 ( 10444 PWs)   bands (ev):

   -18.0122 -17.5580 -16.8344 -15.4611  -6.6364  -6.5719  -6.4048  -6.2918
    -6.1706  -6.0254  -5.9508  -5.8311  -5.7664  -5.5974  -5.4323  -5.3817
    -5.1960  -5.1159  -5.0539  -4.8942  -4.7091  -4.6651  -4.5533  -4.4452
    -4.3233  -3.8883  -3.5366  -3.4118  -3.1470  -2.6132  -2.3806  -1.8690
    -1.6039  -0.4215  -0.3824   0.0431   0.0829   3.7042   4.6293   5.2789

          k = 0.2500 0.4330 0.0517 ( 10429 PWs)   bands (ev):

   -18.0122 -17.5580 -16.8344 -15.4611  -6.6364  -6.5719  -6.4048  -6.2918
    -6.1706  -6.0254  -5.9508  -5.8311  -5.7664  -5.5974  -5.4323  -5.3817
    -5.1960  -5.1159  -5.0539  -4.8942  -4.7091  -4.6651  -4.5533  -4.4452
    -4.3233  -3.8883  -3.5366  -3.4118  -3.1470  -2.6132  -2.3806  -1.8690
    -1.6039  -0.4215  -0.3824   0.0431   0.0829   3.7042   4.6293   5.2789

          k = 0.0000-0.2887 0.0517 ( 10482 PWs)   bands (ev):

   -18.2512 -17.7606 -17.0308 -15.5676  -6.7501  -6.5995  -6.3621  -6.3620
    -6.1688  -6.1609  -6.0234  -5.9586  -5.9181  -5.7356  -5.6591  -5.5104
    -5.3074  -5.2514  -5.2008  -5.1074  -4.7190  -4.7086  -4.6336  -4.5701
    -4.3199  -3.6183  -3.1234  -2.6522  -2.1848  -2.0218  -1.5790  -1.4332
    -1.1658  -0.8825  -0.2528  -0.1603   0.4091   2.9414   4.0933   5.1376

     the Fermi energy is     0.2915 ev

!    total energy              =    -633.81181471 Ry
     Harris-Foulkes estimate   =    -633.81181471 Ry
     estimated scf accuracy    <          5.4E-12 Ry

     The total energy is the sum of the following terms:

     one-electron contribution =   -3421.50211765 Ry
     hartree contribution      =    1761.92535431 Ry
     xc contribution           =    -101.80081658 Ry
     ewald contribution        =    1127.63281743 Ry
     smearing contrib. (-TS)   =      -0.06705222 Ry

     convergence has been achieved in   9 iterations

     Forces acting on atoms (cartesian axes, Ry/au):

     atom    1 type  2   force =     0.00000000    0.00000000    0.00001074
     atom    2 type  1   force =     0.00000000    0.00000000   -0.00000788
     atom    3 type  2   force =     0.00000000   -0.00000000    0.01260722
     atom    4 type  1   force =     0.00000000   -0.00000000   -0.02399345
     atom    5 type  2   force =     0.00000000   -0.00000000    0.02034261
     atom    6 type  1   force =     0.00000000    0.00000000   -0.00899021
     atom    7 type  2   force =     0.00000000   -0.00000000    0.00012333
     atom    8 type  1   force =     0.00000000    0.00000000   -0.00009238

     Total force =     0.000155     Total SCF correction =     0.000006


     Computing stress (Cartesian axis) and pressure

          total   stress  (Ry/bohr**3)                   (kbar)     P=  -13.12
  -0.00010424  -0.00000000   0.00000000        -15.33     -0.00      0.00
  -0.00000000  -0.00010424  -0.00000000         -0.00    -15.33     -0.00
   0.00000000  -0.00000000  -0.00005898          0.00     -0.00     -8.68


     number of scf cycles    =  18
     number of bfgs steps    =  17

     energy   old            =    -633.8118146272 Ry
     energy   new            =    -633.8118147107 Ry

     CASE: energy  _new < energy  _old

     new trust radius        =       0.0005909104 bohr
     new conv_thr            =            1.0E-11 Ry


ATOMIC_POSITIONS (crystal)
O        0.333333333  -0.333333333   0.001367489    0   0   1
Zn       0.333333333  -0.333333333   0.088758270    0   0   1
O        0.666666667   0.333333333   0.125000000    0   0   0
Zn       0.666666667   0.333333333   0.220000000    0   0   0
O        0.333333333  -0.333333333   0.250000000    0   0   0
Zn       0.333333333  -0.333333333   0.345000000    0   0   0
O        0.666666667   0.333333333   0.376198714    0   0   1
Zn       0.666666667   0.333333333   0.471313267    0   0   1



     Writing output data file ZnO.save/
     NEW-OLD atomic charge density approx. for the potential

     negative rho (up, down):  1.256E-03 0.000E+00

     total cpu time spent up to now is     2038.4 secs

     Self-consistent Calculation

     iteration #  1     ecut=    60.00 Ry     beta= 0.75
     Davidson diagonalization with overlap
     ethr =  1.00E-06,  avg # of iterations =  2.0

     Threshold (ethr) on eigenvalues was too large:
     Diagonalizing with lowered threshold

     Davidson diagonalization with overlap
     ethr =  2.44E-10,  avg # of iterations =  3.0

     negative rho (up, down):  1.256E-03 0.000E+00

     total cpu time spent up to now is     2052.6 secs

     total energy              =    -633.81181461 Ry
     Harris-Foulkes estimate   =    -633.81181476 Ry
     estimated scf accuracy    <       0.00000018 Ry

     iteration #  2     ecut=    60.00 Ry     beta= 0.75
     Davidson diagonalization with overlap
     ethr =  2.48E-10,  avg # of iterations =  3.0

     negative rho (up, down):  1.255E-03 0.000E+00

     total cpu time spent up to now is     2061.5 secs

     total energy              =    -633.81181094 Ry
     Harris-Foulkes estimate   =    -633.81181851 Ry
     estimated scf accuracy    <       0.00021485 Ry

     iteration #  3     ecut=    60.00 Ry     beta= 0.75
     Davidson diagonalization with overlap
     ethr =  2.48E-10,  avg # of iterations =  2.8

     negative rho (up, down):  1.256E-03 0.000E+00

     total cpu time spent up to now is     2070.1 secs

     total energy              =    -633.81181466 Ry
     Harris-Foulkes estimate   =    -633.81181481 Ry
     estimated scf accuracy    <       0.00000087 Ry

     iteration #  4     ecut=    60.00 Ry     beta= 0.75
     Davidson diagonalization with overlap
     ethr =  2.48E-10,  avg # of iterations =  2.7

     negative rho (up, down):  1.256E-03 0.000E+00

     total cpu time spent up to now is     2077.8 secs

     total energy              =    -633.81181472 Ry
     Harris-Foulkes estimate   =    -633.81181477 Ry
     estimated scf accuracy    <       0.00000025 Ry

     iteration #  5     ecut=    60.00 Ry     beta= 0.75
     Davidson diagonalization with overlap
     ethr =  2.48E-10,  avg # of iterations =  2.0

     negative rho (up, down):  1.256E-03 0.000E+00

     total cpu time spent up to now is     2084.9 secs

     total energy              =    -633.81181474 Ry
     Harris-Foulkes estimate   =    -633.81181475 Ry
     estimated scf accuracy    <       0.00000001 Ry

     iteration #  6     ecut=    60.00 Ry     beta= 0.75
     Davidson diagonalization with overlap
     ethr =  2.04E-11,  avg # of iterations =  2.2

     negative rho (up, down):  1.256E-03 0.000E+00

     total cpu time spent up to now is     2092.4 secs

     total energy              =    -633.81181475 Ry
     Harris-Foulkes estimate   =    -633.81181475 Ry
     estimated scf accuracy    <          4.0E-10 Ry

     iteration #  7     ecut=    60.00 Ry     beta= 0.75
     Davidson diagonalization with overlap
     ethr =  5.55E-13,  avg # of iterations =  3.0

     negative rho (up, down):  1.256E-03 0.000E+00

     total cpu time spent up to now is     2101.7 secs

     total energy              =    -633.81181475 Ry
     Harris-Foulkes estimate   =    -633.81181475 Ry
     estimated scf accuracy    <          1.1E-10 Ry

     iteration #  8     ecut=    60.00 Ry     beta= 0.75
     Davidson diagonalization with overlap
     ethr =  1.54E-13,  avg # of iterations =  2.2

     negative rho (up, down):  1.256E-03 0.000E+00

     total cpu time spent up to now is     2109.7 secs

     total energy              =    -633.81181475 Ry
     Harris-Foulkes estimate   =    -633.81181475 Ry
     estimated scf accuracy    <          2.0E-11 Ry

     iteration #  9     ecut=    60.00 Ry     beta= 0.75
     Davidson diagonalization with overlap
     ethr =  1.00E-13,  avg # of iterations =  2.0

     negative rho (up, down):  1.256E-03 0.000E+00

     total cpu time spent up to now is     2116.9 secs

     End of self-consistent calculation

          k = 0.0000 0.0000 0.0000 ( 10533 PWs)   bands (ev):

   -18.4806 -17.9574 -17.2188 -15.6711  -6.8086  -6.4632  -6.4632  -6.3103
    -6.2815  -6.2815  -6.0427  -5.9851  -5.9851  -5.9148  -5.9148  -5.6446
    -5.3686  -5.3686  -5.2436  -5.2436  -4.7291  -4.7291  -4.5929  -4.5929
    -4.4948  -3.8235  -2.6635  -1.5821  -1.4670  -1.4670  -0.9254  -0.9254
    -0.4867  -0.4867  -0.3252   0.4992   0.4992   1.1396   2.6115   3.9732

          k = 0.0000 0.0000 0.0517 ( 10526 PWs)   bands (ev):

   -18.4806 -17.9574 -17.2188 -15.6711  -6.8086  -6.4632  -6.4632  -6.3103
    -6.2815  -6.2815  -6.0427  -5.9851  -5.9851  -5.9148  -5.9148  -5.6446
    -5.3686  -5.3686  -5.2436  -5.2436  -4.7291  -4.7291  -4.5929  -4.5929
    -4.4948  -3.8235  -2.6634  -1.5821  -1.4670  -1.4670  -0.9254  -0.9254
    -0.4867  -0.4867  -0.3252   0.4992   0.4992   1.1395   2.6117   3.9724

          k = 0.0000 0.2887 0.0000 ( 10451 PWs)   bands (ev):

   -18.2517 -17.7612 -17.0307 -15.5674  -6.7506  -6.6000  -6.3624  -6.3620
    -6.1688  -6.1613  -6.0236  -5.9589  -5.9183  -5.7360  -5.6593  -5.5105
    -5.3075  -5.2515  -5.2013  -5.1079  -4.7191  -4.7089  -4.6337  -4.5700
    -4.3202  -3.6187  -3.1239  -2.6525  -2.1852  -2.0224  -1.5791  -1.4336
    -1.1659  -0.8825  -0.2526  -0.1602   0.4093   2.9406   4.0932   5.1382

          k = 0.0000 0.2887 0.0517 ( 10482 PWs)   bands (ev):

   -18.2517 -17.7612 -17.0307 -15.5674  -6.7506  -6.6000  -6.3624  -6.3620
    -6.1688  -6.1613  -6.0236  -5.9589  -5.9183  -5.7360  -5.6593  -5.5105
    -5.3075  -5.2515  -5.2013  -5.1079  -4.7191  -4.7089  -4.6337  -4.5700
    -4.3203  -3.6187  -3.1239  -2.6525  -2.1852  -2.0225  -1.5791  -1.4336
    -1.1659  -0.8825  -0.2526  -0.1602   0.4093   2.9406   4.0934   5.1374

          k = 0.0000-0.5774 0.0000 ( 10442 PWs)   bands (ev):

   -18.0095 -17.5566 -16.8324 -15.4609  -6.8214  -6.5311  -6.4420  -6.3112
    -6.2067  -6.0531  -5.8985  -5.8346  -5.7987  -5.5435  -5.5162  -5.2313
    -5.1824  -5.1240  -5.0670  -4.8516  -4.6994  -4.6519  -4.6142  -4.5094
    -4.4596  -4.2503  -3.6896  -3.3383  -2.6297  -2.4229  -1.9693  -1.7668
    -1.3033  -0.6497  -0.4249   0.3164   0.8589   1.0725   5.0987   5.4285

          k = 0.0000-0.5774 0.0517 ( 10468 PWs)   bands (ev):

   -18.0095 -17.5566 -16.8324 -15.4609  -6.8214  -6.5311  -6.4420  -6.3112
    -6.2067  -6.0531  -5.8985  -5.8346  -5.7987  -5.5435  -5.5162  -5.2313
    -5.1824  -5.1240  -5.0670  -4.8516  -4.6994  -4.6519  -4.6142  -4.5094
    -4.4596  -4.2503  -3.6896  -3.3383  -2.6297  -2.4229  -1.9693  -1.7668
    -1.3033  -0.6497  -0.4249   0.3164   0.8589   1.0725   5.0987   5.4285

          k = 0.2500 0.4330 0.0000 ( 10444 PWs)   bands (ev):

   -18.0128 -17.5586 -16.8342 -15.4609  -6.6370  -6.5723  -6.4051  -6.2918
    -6.1707  -6.0258  -5.9512  -5.8314  -5.7667  -5.5977  -5.4326  -5.3819
    -5.1962  -5.1164  -5.0543  -4.8943  -4.7091  -4.6653  -4.5533  -4.4455
    -4.3235  -3.8888  -3.5370  -3.4122  -3.1471  -2.6134  -2.3811  -1.8693
    -1.6041  -0.4213  -0.3823   0.0433   0.0833   3.7044   4.6295   5.2777

          k = 0.2500 0.4330 0.0517 ( 10429 PWs)   bands (ev):

   -18.0128 -17.5586 -16.8342 -15.4609  -6.6370  -6.5723  -6.4051  -6.2918
    -6.1707  -6.0258  -5.9512  -5.8314  -5.7667  -5.5977  -5.4326  -5.3819
    -5.1962  -5.1164  -5.0543  -4.8943  -4.7091  -4.6653  -4.5533  -4.4455
    -4.3235  -3.8888  -3.5370  -3.4122  -3.1471  -2.6134  -2.3811  -1.8693
    -1.6041  -0.4213  -0.3823   0.0433   0.0833   3.7044   4.6295   5.2777

          k = 0.0000-0.2887 0.0517 ( 10482 PWs)   bands (ev):

   -18.2517 -17.7612 -17.0307 -15.5674  -6.7506  -6.6000  -6.3624  -6.3620
    -6.1688  -6.1613  -6.0236  -5.9589  -5.9183  -5.7360  -5.6593  -5.5105
    -5.3075  -5.2515  -5.2013  -5.1079  -4.7191  -4.7089  -4.6337  -4.5700
    -4.3203  -3.6187  -3.1239  -2.6525  -2.1852  -2.0225  -1.5791  -1.4336
    -1.1659  -0.8825  -0.2526  -0.1602   0.4093   2.9406   4.0934   5.1374

     the Fermi energy is     0.2917 ev

!    total energy              =    -633.81181475 Ry
     Harris-Foulkes estimate   =    -633.81181475 Ry
     estimated scf accuracy    <          7.1E-12 Ry

     The total energy is the sum of the following terms:

     one-electron contribution =   -3421.43867508 Ry
     hartree contribution      =    1761.89302414 Ry
     xc contribution           =    -101.80081251 Ry
     ewald contribution        =    1127.60169685 Ry
     smearing contrib. (-TS)   =      -0.06704814 Ry

     convergence has been achieved in   9 iterations

     Forces acting on atoms (cartesian axes, Ry/au):

     atom    1 type  2   force =     0.00000000   -0.00000000   -0.00000206
     atom    2 type  1   force =     0.00000000    0.00000000    0.00000448
     atom    3 type  2   force =     0.00000000    0.00000000    0.01261756
     atom    4 type  1   force =     0.00000000    0.00000000   -0.02401373
     atom    5 type  2   force =     0.00000000   -0.00000000    0.02037807
     atom    6 type  1   force =     0.00000000    0.00000000   -0.00897111
     atom    7 type  2   force =     0.00000000    0.00000000    0.00001320
     atom    8 type  1   force =     0.00000000   -0.00000000   -0.00002640

     Total force =     0.000030     Total SCF correction =     0.000011
     SCF correction compared to forces is large: reduce conv_thr to get better values


     Computing stress (Cartesian axis) and pressure

          total   stress  (Ry/bohr**3)                   (kbar)     P=  -13.12
  -0.00010430   0.00000000   0.00000000        -15.34      0.00      0.00
   0.00000000  -0.00010430   0.00000000          0.00    -15.34      0.00
   0.00000000  -0.00000000  -0.00005889          0.00     -0.00     -8.66


     bfgs converged in  19 scf cycles and  18 bfgs steps
     (criteria: energy <  1.0E-05 Ry, force <  1.0E-04 Ry/Bohr)

     End of BFGS Geometry Optimization

     Final energy   =    -633.8118147458 Ry
Begin final coordinates

ATOMIC_POSITIONS (crystal)
O        0.333333333  -0.333333333   0.001367489    0   0   1
Zn       0.333333333  -0.333333333   0.088758270    0   0   1
O        0.666666667   0.333333333   0.125000000    0   0   0
Zn       0.666666667   0.333333333   0.220000000    0   0   0
O        0.333333333  -0.333333333   0.250000000    0   0   0
Zn       0.333333333  -0.333333333   0.345000000    0   0   0
O        0.666666667   0.333333333   0.376198714    0   0   1
Zn       0.666666667   0.333333333   0.471313267    0   0   1
End final coordinates



     Writing output data file ZnO.save/

     init_run     :      7.62s CPU      3.84s WALL (       1 calls)
     electrons    :   5342.04s CPU   1852.34s WALL (      19 calls)
     update_pot   :     13.95s CPU     11.89s WALL (      18 calls)
     forces       :     87.15s CPU     29.19s WALL (      19 calls)
     stress       :    765.89s CPU    221.31s WALL (      19 calls)

     Called by init_run:
     wfcinit      :      5.30s CPU      2.07s WALL (       1 calls)
     potinit      :      0.41s CPU      0.43s WALL (       1 calls)
     hinit0       :      0.94s CPU      0.69s WALL (       1 calls)

     Called by electrons:
     c_bands      :   3833.09s CPU   1264.84s WALL (     226 calls)
     sum_band     :   1250.10s CPU    407.48s WALL (     226 calls)
     v_of_rho     :     50.76s CPU     48.58s WALL (     235 calls)
     newd         :    212.96s CPU    135.02s WALL (     235 calls)
     mix_rho      :      7.82s CPU      6.47s WALL (     226 calls)

     Called by c_bands:
     init_us_2    :    177.43s CPU     41.11s WALL (    4419 calls)
     cegterg      :   3193.81s CPU   1100.04s WALL (    2034 calls)

     Called by sum_band:
     sum_band:bec :      0.94s CPU      0.13s WALL (    2034 calls)
     addusdens    :    421.30s CPU    141.08s WALL (     226 calls)

     Called by *egterg:
     h_psi        :   2255.17s CPU    944.13s WALL (    7640 calls)
     s_psi        :    161.05s CPU     21.67s WALL (    7640 calls)
     g_psi        :     75.31s CPU     15.73s WALL (    5597 calls)
     cdiaghg      :    142.51s CPU     27.97s WALL (    7379 calls)

     Called by h_psi:
     h_psi:pot    :   2198.11s CPU    925.59s WALL (    7640 calls)
     h_psi:calbec :    151.84s CPU     20.90s WALL (    7640 calls)
     vloc_psi     :   1884.35s CPU    882.97s WALL (    7640 calls)
     add_vuspsi   :    161.57s CPU     21.68s WALL (    7640 calls)

     General routines
     calbec       :    230.08s CPU     31.28s WALL (   10529 calls)
     fft          :     35.44s CPU     30.16s WALL (    3197 calls)
     ffts         :      5.31s CPU      1.70s WALL (     461 calls)
     fftw         :   2072.55s CPU    931.43s WALL (  495018 calls)
     interpolate  :      3.18s CPU      3.19s WALL (     235 calls)

     Parallel routines

     PWSCF        :      1h43m CPU  35m30.21s WALL


   This run was terminated on:   0:32:47  10Dec2020            

=------------------------------------------------------------------------------=
   JOB DONE.
=------------------------------------------------------------------------------=
